BEGIN_CFG
 Size
	12
 Supercell
	5.297755158474296 0.0 0.0
	-2.648877568257191 4.587990556608076 0.0
	0.0 0.0 6.647199199061356
 AtomData:  id type	direct_x	direct_y	direct_z	
	1	0	0.000000000000000	0.000000000000000	0.436040915395456
	2	0	0.000000000000000	0.000000000000000	0.936040915395456
	3	0	0.333332985639572	0.666666984558105	0.549199681789444
	4	0	0.666667014360428	0.333333015441895	0.049199681789444
	5	0	0.333332985639572	0.666666984558105	0.213692366319718
	6	0	0.666667014360428	0.333333015441895	0.713692366319718
	7	0	0.000000000000000	0.000000000000000	0.788767475163122
	8	0	0.000000000000000	0.000000000000000	0.288767475163122
	9	0	0.000000000000000	0.000000000000000	0.611126841988633
	10	0	0.000000000000000	0.000000000000000	0.111126841988634
	11	1	0.333332985639572	0.666666984558105	0.962410794564820
	12	1	0.666667014360428	0.333333015441895	0.462410794564820
 Feature	from	C10Hf2_--_randSpg_with_spg_of:_186
 Feature	elements	CHf
 Feature	PRAPs-ID	URX_1
END_CFG

BEGIN_CFG
 Size
	12
 Supercell
	4.319408027872345 0.0 0.0
	-2.159704004983906 3.740717086616486 0.0
	0.0 0.0 8.89623777759694
 AtomData:  id type	direct_x	direct_y	direct_z	
	1	0	0.000000000000000	0.000000000000000	0.017642279508859
	2	0	0.000000000000000	0.000000000000000	0.517642279508859
	3	0	0.000000000000000	0.000000000000000	0.772558713827324
	4	0	0.000000000000000	0.000000000000000	0.272558713827324
	5	0	0.333332985639572	0.666666984558105	0.068548179572751
	6	0	0.666667014360428	0.333333015441895	0.568548179572751
	7	0	0.000000000000000	0.000000000000000	0.105787761313097
	8	0	0.000000000000000	0.000000000000000	0.605787761313097
	9	0	0.333332985639572	0.666666984558105	0.246862989145225
	10	0	0.666667014360428	0.333333015441895	0.746862989145225
	11	1	0.333332985639572	0.666666984558105	0.444390670879974
	12	1	0.666667014360428	0.333333015441895	0.944390670879974
 Feature	from	C10Hf2_--_randSpg_with_spg_of:_186
 Feature	elements	CHf
 Feature	PRAPs-ID	URX_2
END_CFG

BEGIN_CFG
 Size
	12
 Supercell
	5.363837970274327 0.0 0.0
	-2.681918974020245 4.645219950459483 0.0
	0.0 0.0 6.519332960741552
 AtomData:  id type	direct_x	direct_y	direct_z	
	1	0	0.333332985639572	0.666666984558105	0.696772652456527
	2	0	0.666667014360428	0.333333015441895	0.196772652456527
	3	0	0.333332985639572	0.666666984558105	0.159689799281757
	4	0	0.666667014360428	0.333333015441895	0.659689799281757
	5	0	0.000000000000000	0.000000000000000	0.265441769373794
	6	0	0.000000000000000	0.000000000000000	0.765441769373794
	7	0	0.333332985639572	0.666666984558105	0.559816014529646
	8	0	0.666667014360428	0.333333015441895	0.059816014529646
	9	0	0.333332985639572	0.666666984558105	0.999482957259667
	10	0	0.666667014360428	0.333333015441895	0.499482957259667
	11	1	0.333332985639572	0.666666984558105	0.365543350364231
	12	1	0.666667014360428	0.333333015441895	0.865543350364231
 Feature	from	C10Hf2_--_randSpg_with_spg_of:_186
 Feature	elements	CHf
 Feature	PRAPs-ID	URX_3
END_CFG

BEGIN_CFG
 Size
	12
 Supercell
	5.770980909000674 0.0 0.0
	-2.885490442539588 4.997816078855137 0.0
	0.0 0.0 5.100539303045841
 AtomData:  id type	direct_x	direct_y	direct_z	
	1	0	0.333332985639572	0.666666984558105	0.750000000000000
	2	0	0.666667014360428	0.333333015441895	0.250000000000000
	3	0	0.000000000000000	0.000000000000000	0.250000000000000
	4	0	0.000000000000000	0.000000000000000	0.750000000000000
	5	0	0.333332985639572	0.666666984558105	0.250000000000000
	6	0	0.666667014360428	0.333333015441895	0.750000000000000
	7	0	0.333332985639572	0.666666984558105	0.447248587106186
	8	0	0.666667014360428	0.333333015441895	0.947248587106186
	9	0	0.666666984558105	0.333332985639572	0.552751412893814
	10	0	0.333333015441895	0.666667014360428	0.052751412893814
	11	1	0.000000000000000	0.000000000000000	0.000000000000000
	12	1	0.000000000000000	0.000000000000000	0.500000000000000
 Feature	from	C10Hf2_--_randSpg_with_spg_of:_194
 Feature	elements	CHf
 Feature	PRAPs-ID	URX_4
END_CFG

BEGIN_CFG
 Size
	12
 Supercell
	5.647377240868613 0.0 0.0
	-2.823688608729734 4.890772162103927 0.0
	0.0 0.0 5.092820621585155
 AtomData:  id type	direct_x	direct_y	direct_z	
	1	0	0.333332985639572	0.666666984558105	0.250000000000000
	2	0	0.666667014360428	0.333333015441895	0.750000000000000
	3	0	0.000000000000000	0.000000000000000	0.250000000000000
	4	0	0.000000000000000	0.000000000000000	0.750000000000000
	5	0	0.500000000000000	0.000000000000000	0.000000000000000
	6	0	0.000000000000000	0.500000000000000	0.000000000000000
	7	0	0.500000000000000	0.500000000000000	0.000000000000000
	8	0	0.500000000000000	0.000000000000000	0.500000000000000
	9	0	0.000000000000000	0.500000000000000	0.500000000000000
	10	0	0.500000000000000	0.500000000000000	0.500000000000000
	11	1	0.000000000000000	0.000000000000000	0.000000000000000
	12	1	0.000000000000000	0.000000000000000	0.500000000000000
 Feature	from	C10Hf2_--_randSpg_with_spg_of:_194
 Feature	elements	CHf
 Feature	PRAPs-ID	URX_5
END_CFG

BEGIN_CFG
 Size
	12
 Supercell
	4.167474600896496 0.0 0.0
	-2.083737291810874 3.60913887898957 0.0
	0.0 0.0 9.543138837217368
 AtomData:  id type	direct_x	direct_y	direct_z	
	1	0	0.333332985639572	0.666666984558105	0.250000000000000
	2	0	0.666667014360428	0.333333015441895	0.750000000000000
	3	0	0.000000000000000	0.000000000000000	0.000000000000000
	4	0	0.000000000000000	0.000000000000000	0.500000000000000
	5	0	0.333332985639572	0.666666984558105	0.750000000000000
	6	0	0.666667014360428	0.333333015441895	0.250000000000000
	7	0	0.000000000000000	0.000000000000000	0.891953250842231
	8	0	0.000000000000000	0.000000000000000	0.391953250842231
	9	0	0.000000000000000	0.000000000000000	0.108046749157769
	10	0	0.000000000000000	0.000000000000000	0.608046749157769
	11	1	0.000000000000000	0.000000000000000	0.250000000000000
	12	1	0.000000000000000	0.000000000000000	0.750000000000000
 Feature	from	C10Hf2_--_randSpg_with_spg_of:_194
 Feature	elements	CHf
 Feature	PRAPs-ID	URX_6
END_CFG

BEGIN_CFG
 Size
	12
 Supercell
	5.607188541421427 0.0 0.0
	-2.803594259089435 4.855967727389516 0.0
	0.0 0.0 9.51295505030144
 AtomData:  id type	direct_x	direct_y	direct_z	
	1	0	0.333332985639572	0.666666984558105	0.440140627938034
	2	0	0.666667014360428	0.333333015441895	0.940140627938034
	3	1	0.333332985639572	0.666666984558105	0.026959301756032
	4	1	0.666667014360428	0.333333015441895	0.526959301756032
	5	1	0.000000000000000	0.000000000000000	0.989853633205090
	6	1	0.000000000000000	0.000000000000000	0.489853633205090
	7	1	0.333332985639572	0.666666984558105	0.749114563702825
	8	1	0.666667014360428	0.333333015441895	0.249114563702825
	9	1	0.000000000000000	0.000000000000000	0.691420059522780
	10	1	0.000000000000000	0.000000000000000	0.191420059522780
	11	1	0.000000000000000	0.000000000000000	0.339154623494741
	12	1	0.000000000000000	0.000000000000000	0.839154623494741
 Feature	from	C2Hf10_--_randSpg_with_spg_of:_186
 Feature	elements	CHf
 Feature	PRAPs-ID	URX_7
END_CFG

BEGIN_CFG
 Size
	12
 Supercell
	6.258847498474769 0.0 0.0
	-3.129423736265498 5.420320939581157 0.0
	0.0 0.0 7.287643801564333
 AtomData:  id type	direct_x	direct_y	direct_z	
	1	0	0.333332985639572	0.666666984558105	0.950933721276759
	2	0	0.666667014360428	0.333333015441895	0.450933721276759
	3	1	0.333332985639572	0.666666984558105	0.638728437196520
	4	1	0.666667014360428	0.333333015441895	0.138728437196520
	5	1	0.000000000000000	0.000000000000000	0.112201443515655
	6	1	0.000000000000000	0.000000000000000	0.612201443515655
	7	1	0.333332985639572	0.666666984558105	0.286219474620941
	8	1	0.666667014360428	0.333333015441895	0.786219474620941
	9	1	0.000000000000000	0.000000000000000	0.868208183692951
	10	1	0.000000000000000	0.000000000000000	0.368208183692951
	11	1	0.333332985639572	0.666666984558105	0.458973314444898
	12	1	0.666667014360428	0.333333015441895	0.958973314444898
 Feature	from	C2Hf10_--_randSpg_with_spg_of:_186
 Feature	elements	CHf
 Feature	PRAPs-ID	URX_8
END_CFG

BEGIN_CFG
 Size
	12
 Supercell
	5.30147905343362 0.0 0.0
	-2.650739515729135 4.591215544248331 0.0
	0.0 0.0 9.976542431513424
 AtomData:  id type	direct_x	direct_y	direct_z	
	1	0	0.333332985639572	0.666666984558105	0.546970314555175
	2	0	0.666667014360428	0.333333015441895	0.046970314555175
	3	1	0.333332985639572	0.666666984558105	0.354633202605602
	4	1	0.666667014360428	0.333333015441895	0.854633202605602
	5	1	0.333332985639572	0.666666984558105	0.873292146263106
	6	1	0.666667014360428	0.333333015441895	0.373292146263106
	7	1	0.000000000000000	0.000000000000000	0.946278382117681
	8	1	0.000000000000000	0.000000000000000	0.446278382117681
	9	1	0.000000000000000	0.000000000000000	0.225754072292765
	10	1	0.000000000000000	0.000000000000000	0.725754072292765
	11	1	0.333332985639572	0.666666984558105	0.050123893840937
	12	1	0.666667014360428	0.333333015441895	0.550123893840937
 Feature	from	C2Hf10_--_randSpg_with_spg_of:_186
 Feature	elements	CHf
 Feature	PRAPs-ID	URX_9
END_CFG

BEGIN_CFG
 Size
	12
 Supercell
	6.095366730536147 0.0 0.0
	-3.047683352635012 5.2787424413205 0.0
	0.0 0.0 8.213977241192433
 AtomData:  id type	direct_x	direct_y	direct_z	
	1	0	0.333332985639572	0.666666984558105	0.750000000000000
	2	0	0.666667014360428	0.333333015441895	0.250000000000000
	3	1	0.000000000000000	0.000000000000000	0.000000000000000
	4	1	0.000000000000000	0.000000000000000	0.500000000000000
	5	1	0.500000000000000	0.000000000000000	0.000000000000000
	6	1	0.000000000000000	0.500000000000000	0.000000000000000
	7	1	0.500000000000000	0.500000000000000	0.000000000000000
	8	1	0.500000000000000	0.000000000000000	0.500000000000000
	9	1	0.000000000000000	0.500000000000000	0.500000000000000
	10	1	0.500000000000000	0.500000000000000	0.500000000000000
	11	1	0.333332985639572	0.666666984558105	0.250000000000000
	12	1	0.666667014360428	0.333333015441895	0.750000000000000
 Feature	from	C2Hf10_--_randSpg_with_spg_of:_194
 Feature	elements	CHf
 Feature	PRAPs-ID	URX_10
END_CFG

BEGIN_CFG
 Size
	12
 Supercell
	5.920017769237822 0.0 0.0
	-2.960008872349273 5.126885786099115 0.0
	0.0 0.0 8.297222559421268
 AtomData:  id type	direct_x	direct_y	direct_z	
	1	0	0.000000000000000	0.000000000000000	0.250000000000000
	2	0	0.000000000000000	0.000000000000000	0.750000000000000
	3	1	0.000000000000000	0.000000000000000	0.000000000000000
	4	1	0.000000000000000	0.000000000000000	0.500000000000000
	5	1	0.333332985639572	0.666666984558105	0.750000000000000
	6	1	0.666667014360428	0.333333015441895	0.250000000000000
	7	1	0.333332985639572	0.666666984558105	0.031572346350776
	8	1	0.666667014360428	0.333333015441895	0.531572346350776
	9	1	0.666666984558105	0.333332985639572	0.968427653649224
	10	1	0.333333015441895	0.666667014360428	0.468427653649224
	11	1	0.333332985639572	0.666666984558105	0.250000000000000
	12	1	0.666667014360428	0.333333015441895	0.750000000000000
 Feature	from	C2Hf10_--_randSpg_with_spg_of:_194
 Feature	elements	CHf
 Feature	PRAPs-ID	URX_11
END_CFG

BEGIN_CFG
 Size
	12
 Supercell
	6.759037496847469 0.0 0.0
	-3.379518734415171 5.853498185489339 0.0
	0.0 0.0 6.637072032259939
 AtomData:  id type	direct_x	direct_y	direct_z	
	1	0	0.333332985639572	0.666666984558105	0.250000000000000
	2	0	0.666667014360428	0.333333015441895	0.750000000000000
	3	1	0.000000000000000	0.000000000000000	0.250000000000000
	4	1	0.000000000000000	0.000000000000000	0.750000000000000
	5	1	0.156431452983283	0.312862905966566	0.250000000000000
	6	1	0.687137094033434	0.843568547016717	0.250000000000000
	7	1	0.156431452983283	0.843568547016717	0.250000000000000
	8	1	0.843568547016717	0.687137094033434	0.750000000000000
	9	1	0.312862905966566	0.156431452983283	0.750000000000000
	10	1	0.843568547016717	0.156431452983283	0.750000000000000
	11	1	0.333332985639572	0.666666984558105	0.750000000000000
	12	1	0.666667014360428	0.333333015441895	0.250000000000000
 Feature	from	C2Hf10_--_randSpg_with_spg_of:_194
 Feature	elements	CHf
 Feature	PRAPs-ID	URX_12
END_CFG

BEGIN_CFG
 Size
	4
 Supercell
	4.207392972446514 0.0 0.0
	-2.10369647750315 3.643709202877358 0.0
	0.0 0.0 4.682342248978129
 AtomData:  id type	direct_x	direct_y	direct_z	
	1	0	0.333332985639572	0.666666984558105	0.589222219601721
	2	0	0.666667014360428	0.333333015441895	0.089222219601721
	3	1	0.000000000000000	0.000000000000000	0.645780599302763
	4	1	0.000000000000000	0.000000000000000	0.145780599302763
 Feature	from	C2Hf2_--_randSpg_with_spg_of:_186
 Feature	elements	CHf
 Feature	PRAPs-ID	URX_13
END_CFG

BEGIN_CFG
 Size
	4
 Supercell
	3.758702491473459 0.0 0.0
	-1.879351237946564 3.255131847381532 0.0
	0.0 0.0 5.541184657051644
 AtomData:  id type	direct_x	direct_y	direct_z	
	1	0	0.333332985639572	0.666666984558105	0.005275641871843
	2	0	0.666667014360428	0.333333015441895	0.505275641871843
	3	1	0.000000000000000	0.000000000000000	0.160948687307350
	4	1	0.000000000000000	0.000000000000000	0.660948687307350
 Feature	from	C2Hf2_--_randSpg_with_spg_of:_186
 Feature	elements	CHf
 Feature	PRAPs-ID	URX_14
END_CFG

BEGIN_CFG
 Size
	4
 Supercell
	4.112346783777842 0.0 0.0
	-2.056173383365803 3.561396788843668 0.0
	0.0 0.0 5.020295626106082
 AtomData:  id type	direct_x	direct_y	direct_z	
	1	0	0.000000000000000	0.000000000000000	0.175219598318564
	2	0	0.000000000000000	0.000000000000000	0.675219598318564
	3	1	0.333332985639572	0.666666984558105	0.181823263976192
	4	1	0.666667014360428	0.333333015441895	0.681823263976192
 Feature	from	C2Hf2_--_randSpg_with_spg_of:_186
 Feature	elements	CHf
 Feature	PRAPs-ID	URX_15
END_CFG

BEGIN_CFG
 Size
	4
 Supercell
	4.404337712208848 0.0 0.0
	-2.202168846976135 3.814268350888918 0.0
	0.0 0.0 4.137083777745514
 AtomData:  id type	direct_x	direct_y	direct_z	
	1	0	0.000000000000000	0.000000000000000	0.250000000000000
	2	0	0.000000000000000	0.000000000000000	0.750000000000000
	3	1	0.333332985639572	0.666666984558105	0.750000000000000
	4	1	0.666667014360428	0.333333015441895	0.250000000000000
 Feature	from	C2Hf2_--_randSpg_with_spg_of:_194
 Feature	elements	CHf
 Feature	PRAPs-ID	URX_16
END_CFG

BEGIN_CFG
 Size
	4
 Supercell
	4.608780894731887 0.0 0.0
	-2.304390437813932 3.991321340829045 0.0
	0.0 0.0 3.500650415559242
 AtomData:  id type	direct_x	direct_y	direct_z	
	1	0	0.000000000000000	0.000000000000000	0.000000000000000
	2	0	0.000000000000000	0.000000000000000	0.500000000000000
	3	1	0.333332985639572	0.666666984558105	0.250000000000000
	4	1	0.666667014360428	0.333333015441895	0.750000000000000
 Feature	from	C2Hf2_--_randSpg_with_spg_of:_194
 Feature	elements	CHf
 Feature	PRAPs-ID	URX_17
END_CFG

BEGIN_CFG
 Size
	4
 Supercell
	4.096057612287201 0.0 0.0
	-2.048028797654243 3.547289952506679 0.0
	0.0 0.0 4.340629047037743
 AtomData:  id type	direct_x	direct_y	direct_z	
	1	0	0.333332985639572	0.666666984558105	0.250000000000000
	2	0	0.666667014360428	0.333333015441895	0.750000000000000
	3	1	0.333332985639572	0.666666984558105	0.750000000000000
	4	1	0.666667014360428	0.333333015441895	0.250000000000000
 Feature	from	C2Hf2_--_randSpg_with_spg_of:_194
 Feature	elements	CHf
 Feature	PRAPs-ID	URX_18
END_CFG

BEGIN_CFG
 Size
	6
 Supercell
	4.702893967000299 0.0 0.0
	-2.351446973753083 4.072825652354306 0.0
	0.0 0.0 5.453801759414691
 AtomData:  id type	direct_x	direct_y	direct_z	
	1	0	0.333332985639572	0.666666984558105	0.304028689355446
	2	0	0.666667014360428	0.333333015441895	0.804028689355446
	3	1	0.333332985639572	0.666666984558105	0.887005182793838
	4	1	0.666667014360428	0.333333015441895	0.387005182793838
	5	1	0.000000000000000	0.000000000000000	0.751775065353810
	6	1	0.000000000000000	0.000000000000000	0.251775065353810
 Feature	from	C2Hf4_--_randSpg_with_spg_of:_186
 Feature	elements	CHf
 Feature	PRAPs-ID	URX_19
END_CFG

BEGIN_CFG
 Size
	6
 Supercell
	4.728476657156221 0.0 0.0
	-2.364238318778022 4.094980911957093 0.0
	0.0 0.0 6.289684581791754
 AtomData:  id type	direct_x	direct_y	direct_z	
	1	0	0.333332985639572	0.666666984558105	0.859970440170175
	2	0	0.666667014360428	0.333333015441895	0.359970440170175
	3	1	0.000000000000000	0.000000000000000	0.788379131893720
	4	1	0.000000000000000	0.000000000000000	0.288379131893720
	5	1	0.000000000000000	0.000000000000000	0.078844552868851
	6	1	0.000000000000000	0.000000000000000	0.578844552868851
 Feature	from	C2Hf4_--_randSpg_with_spg_of:_186
 Feature	elements	CHf
 Feature	PRAPs-ID	URX_20
END_CFG

BEGIN_CFG
 Size
	6
 Supercell
	4.145231213661613 0.0 0.0
	-2.072615598239533 3.589875540551331 0.0
	0.0 0.0 8.200047554641378
 AtomData:  id type	direct_x	direct_y	direct_z	
	1	0	0.333332985639572	0.666666984558105	0.924001579059182
	2	0	0.666667014360428	0.333333015441895	0.424001579059182
	3	1	0.333332985639572	0.666666984558105	0.207432543721004
	4	1	0.666667014360428	0.333333015441895	0.707432543721004
	5	1	0.333332985639572	0.666666984558105	0.568356635494657
	6	1	0.666667014360428	0.333333015441895	0.068356635494657
 Feature	from	C2Hf4_--_randSpg_with_spg_of:_186
 Feature	elements	CHf
 Feature	PRAPs-ID	URX_21
END_CFG

BEGIN_CFG
 Size
	6
 Supercell
	4.013408469488511 0.0 0.0
	-2.006704226426194 3.475713695143109 0.0
	0.0 0.0 7.520256333058621
 AtomData:  id type	direct_x	direct_y	direct_z	
	1	0	0.333332985639572	0.666666984558105	0.750000000000000
	2	0	0.666667014360428	0.333333015441895	0.250000000000000
	3	1	0.000000000000000	0.000000000000000	0.250000000000000
	4	1	0.000000000000000	0.000000000000000	0.750000000000000
	5	1	0.333332985639572	0.666666984558105	0.250000000000000
	6	1	0.666667014360428	0.333333015441895	0.750000000000000
 Feature	from	C2Hf4_--_randSpg_with_spg_of:_194
 Feature	elements	CHf
 Feature	PRAPs-ID	URX_22
END_CFG

BEGIN_CFG
 Size
	6
 Supercell
	5.01282712899905 0.0 0.0
	-2.506413554110101 4.341235644491327 0.0
	0.0 0.0 5.16530434241891
 AtomData:  id type	direct_x	direct_y	direct_z	
	1	0	0.000000000000000	0.000000000000000	0.250000000000000
	2	0	0.000000000000000	0.000000000000000	0.750000000000000
	3	1	0.333332985639572	0.666666984558105	0.250000000000000
	4	1	0.666667014360428	0.333333015441895	0.750000000000000
	5	1	0.333332985639572	0.666666984558105	0.750000000000000
	6	1	0.666667014360428	0.333333015441895	0.250000000000000
 Feature	from	C2Hf4_--_randSpg_with_spg_of:_194
 Feature	elements	CHf
 Feature	PRAPs-ID	URX_23
END_CFG

BEGIN_CFG
 Size
	6
 Supercell
	5.009356497887741 0.0 0.0
	-2.50467823856164 4.338229989777616 0.0
	0.0 0.0 5.126417764183265
 AtomData:  id type	direct_x	direct_y	direct_z	
	1	0	0.000000000000000	0.000000000000000	0.000000000000000
	2	0	0.000000000000000	0.000000000000000	0.500000000000000
	3	1	0.333332985639572	0.666666984558105	0.750000000000000
	4	1	0.666667014360428	0.333333015441895	0.250000000000000
	5	1	0.333332985639572	0.666666984558105	0.250000000000000
	6	1	0.666667014360428	0.333333015441895	0.750000000000000
 Feature	from	C2Hf4_--_randSpg_with_spg_of:_194
 Feature	elements	CHf
 Feature	PRAPs-ID	URX_24
END_CFG

BEGIN_CFG
 Size
	8
 Supercell
	5.919836825553368 0.0 0.0
	-2.959918400507421 5.126729084271507 0.0
	0.0 0.0 5.542333324821635
 AtomData:  id type	direct_x	direct_y	direct_z	
	1	0	0.333332985639572	0.666666984558105	0.531016318287696
	2	0	0.666667014360428	0.333333015441895	0.031016318287696
	3	1	0.333332985639572	0.666666984558105	0.148087785478974
	4	1	0.666667014360428	0.333333015441895	0.648087785478974
	5	1	0.000000000000000	0.000000000000000	0.142830803660001
	6	1	0.000000000000000	0.000000000000000	0.642830803660001
	7	1	0.000000000000000	0.000000000000000	0.389543287325102
	8	1	0.000000000000000	0.000000000000000	0.889543287325102
 Feature	from	C2Hf6_--_randSpg_with_spg_of:_186
 Feature	elements	CHf
 Feature	PRAPs-ID	URX_25
END_CFG

BEGIN_CFG
 Size
	8
 Supercell
	6.032300112501755 0.0 0.0
	-3.016150043748526 5.224125147896483 0.0
	0.0 0.0 4.771975021133804
 AtomData:  id type	direct_x	direct_y	direct_z	
	1	0	0.333332985639572	0.666666984558105	0.498129696004686
	2	0	0.666667014360428	0.333333015441895	0.998129696004685
	3	1	0.000000000000000	0.000000000000000	0.609699405407219
	4	1	0.000000000000000	0.000000000000000	0.109699405407219
	5	1	0.333332985639572	0.666666984558105	0.098023687227841
	6	1	0.666667014360428	0.333333015441895	0.598023687227841
	7	1	0.333332985639572	0.666666984558105	0.784101050284872
	8	1	0.666667014360428	0.333333015441895	0.284101050284872
 Feature	from	C2Hf6_--_randSpg_with_spg_of:_186
 Feature	elements	CHf
 Feature	PRAPs-ID	URX_26
END_CFG

BEGIN_CFG
 Size
	8
 Supercell
	5.576077508415783 0.0 0.0
	-2.788038742651092 4.829024782431426 0.0
	0.0 0.0 5.681971511030971
 AtomData:  id type	direct_x	direct_y	direct_z	
	1	0	0.000000000000000	0.000000000000000	0.663480996290090
	2	0	0.000000000000000	0.000000000000000	0.163480996290090
	3	1	0.333332985639572	0.666666984558105	0.094325377218038
	4	1	0.666667014360428	0.333333015441895	0.594325377218038
	5	1	0.333332985639572	0.666666984558105	0.664229435543094
	6	1	0.666667014360428	0.333333015441895	0.164229435543094
	7	1	0.000000000000000	0.000000000000000	0.931761304575676
	8	1	0.000000000000000	0.000000000000000	0.431761304575677
 Feature	from	C2Hf6_--_randSpg_with_spg_of:_186
 Feature	elements	CHf
 Feature	PRAPs-ID	URX_27
END_CFG

BEGIN_CFG
 Size
	8
 Supercell
	4.947558212599398 0.0 0.0
	-2.473779096045549 4.284711104733645 0.0
	0.0 0.0 7.532372863050631
 AtomData:  id type	direct_x	direct_y	direct_z	
	1	0	0.000000000000000	0.000000000000000	0.000000000000000
	2	0	0.000000000000000	0.000000000000000	0.500000000000000
	3	1	0.333332985639572	0.666666984558105	0.024713841119889
	4	1	0.666667014360428	0.333333015441895	0.524713841119889
	5	1	0.666666984558105	0.333332985639572	0.975286158880111
	6	1	0.333333015441895	0.666667014360428	0.475286158880111
	7	1	0.000000000000000	0.000000000000000	0.250000000000000
	8	1	0.000000000000000	0.000000000000000	0.750000000000000
 Feature	from	C2Hf6_--_randSpg_with_spg_of:_194
 Feature	elements	CHf
 Feature	PRAPs-ID	URX_28
END_CFG

BEGIN_CFG
 Size
	8
 Supercell
	7.117225127336866 0.0 0.0
	-3.558612548917501 6.163697773243116 0.0
	0.0 0.0 3.427285655431135
 AtomData:  id type	direct_x	direct_y	direct_z	
	1	0	0.105198193843334	0.210396387686668	0.250000000000000
	2	0	0.789603612313332	0.894801806156666	0.250000000000000
	3	1	0.105198193843334	0.894801806156666	0.250000000000000
	4	1	0.894801806156666	0.789603612313332	0.750000000000000
	5	1	0.210396387686668	0.105198193843334	0.750000000000000
	6	1	0.894801806156666	0.105198193843334	0.750000000000000
	7	1	0.333332985639572	0.666666984558105	0.250000000000000
	8	1	0.666667014360428	0.333333015441895	0.750000000000000
 Feature	from	C2Hf6_--_randSpg_with_spg_of:_194
 Feature	elements	CHf
 Feature	PRAPs-ID	URX_29
END_CFG

BEGIN_CFG
 Size
	8
 Supercell
	5.501595435281297 0.0 0.0
	-2.750797706238219 4.764521414881306 0.0
	0.0 0.0 6.123487202266904
 AtomData:  id type	direct_x	direct_y	direct_z	
	1	0	0.500000000000000	0.000000000000000	0.000000000000000
	2	0	0.000000000000000	0.500000000000000	0.000000000000000
	3	1	0.500000000000000	0.500000000000000	0.000000000000000
	4	1	0.500000000000000	0.000000000000000	0.500000000000000
	5	1	0.000000000000000	0.500000000000000	0.500000000000000
	6	1	0.500000000000000	0.500000000000000	0.500000000000000
	7	1	0.333332985639572	0.666666984558105	0.250000000000000
	8	1	0.666667014360428	0.333333015441895	0.750000000000000
 Feature	from	C2Hf6_--_randSpg_with_spg_of:_194
 Feature	elements	CHf
 Feature	PRAPs-ID	URX_30
END_CFG

BEGIN_CFG
 Size
	8
 Supercell
	5.32146877826557 0.0 0.0
	0.0 5.32146877826557 0.0
	0.0 0.0 5.32146877826557
 AtomData:  id type	direct_x	direct_y	direct_z	
	1	0	0.000000000000000	0.500000000000000	0.500000000000000
	2	0	0.500000000000000	0.000000000000000	0.500000000000000
	3	1	0.500000000000000	0.500000000000000	0.000000000000000
	4	1	0.500000000000000	0.000000000000000	0.000000000000000
	5	1	0.000000000000000	0.500000000000000	0.000000000000000
	6	1	0.000000000000000	0.000000000000000	0.500000000000000
	7	1	0.000000000000000	0.000000000000000	0.000000000000000
	8	1	0.500000000000000	0.500000000000000	0.500000000000000
 Feature	from	C2Hf6_--_randSpg_with_spg_of:_229
 Feature	elements	CHf
 Feature	PRAPs-ID	URX_31
END_CFG

BEGIN_CFG
 Size
	8
 Supercell
	5.228068861301303 0.0 0.0
	0.0 5.228068861301303 0.0
	0.0 0.0 5.228068861301303
 AtomData:  id type	direct_x	direct_y	direct_z	
	1	0	0.000000000000000	0.500000000000000	0.500000000000000
	2	0	0.500000000000000	0.000000000000000	0.500000000000000
	3	1	0.500000000000000	0.500000000000000	0.000000000000000
	4	1	0.500000000000000	0.000000000000000	0.000000000000000
	5	1	0.000000000000000	0.500000000000000	0.000000000000000
	6	1	0.000000000000000	0.000000000000000	0.500000000000000
	7	1	0.000000000000000	0.000000000000000	0.000000000000000
	8	1	0.500000000000000	0.500000000000000	0.500000000000000
 Feature	from	C2Hf6_--_randSpg_with_spg_of:_229
 Feature	elements	CHf
 Feature	PRAPs-ID	URX_32
END_CFG

BEGIN_CFG
 Size
	8
 Supercell
	5.240025390867071 0.0 0.0
	0.0 5.240025390867071 0.0
	0.0 0.0 5.240025390867071
 AtomData:  id type	direct_x	direct_y	direct_z	
	1	0	0.000000000000000	0.500000000000000	0.500000000000000
	2	0	0.500000000000000	0.000000000000000	0.500000000000000
	3	1	0.500000000000000	0.500000000000000	0.000000000000000
	4	1	0.500000000000000	0.000000000000000	0.000000000000000
	5	1	0.000000000000000	0.500000000000000	0.000000000000000
	6	1	0.000000000000000	0.000000000000000	0.500000000000000
	7	1	0.000000000000000	0.000000000000000	0.000000000000000
	8	1	0.500000000000000	0.500000000000000	0.500000000000000
 Feature	from	C2Hf6_--_randSpg_with_spg_of:_229
 Feature	elements	CHf
 Feature	PRAPs-ID	URX_33
END_CFG

BEGIN_CFG
 Size
	10
 Supercell
	6.321671815348973 0.0 0.0
	-3.160835894572393 5.474728394044797 0.0
	0.0 0.0 6.059839494447977
 AtomData:  id type	direct_x	direct_y	direct_z	
	1	0	0.000000000000000	0.000000000000000	0.092660748484527
	2	0	0.000000000000000	0.000000000000000	0.592660748484527
	3	1	0.333332985639572	0.666666984558105	0.408109690492548
	4	1	0.666667014360428	0.333333015441895	0.908109690492548
	5	1	0.333332985639572	0.666666984558105	0.738969595883589
	6	1	0.666667014360428	0.333333015441895	0.238969595883589
	7	1	0.333332985639572	0.666666984558105	0.113022161646004
	8	1	0.666667014360428	0.333333015441895	0.613022161646004
	9	1	0.000000000000000	0.000000000000000	0.815188606913376
	10	1	0.000000000000000	0.000000000000000	0.315188606913376
 Feature	from	C2Hf8_--_randSpg_with_spg_of:_186
 Feature	elements	CHf
 Feature	PRAPs-ID	URX_34
END_CFG

BEGIN_CFG
 Size
	10
 Supercell
	5.037887662539015 0.0 0.0
	-2.518943820828144 4.362938703199316 0.0
	0.0 0.0 9.282312023948936
 AtomData:  id type	direct_x	direct_y	direct_z	
	1	0	0.333332985639572	0.666666984558105	0.789725515582776
	2	0	0.666667014360428	0.333333015441895	0.289725515582776
	3	1	0.333332985639572	0.666666984558105	0.996215118361072
	4	1	0.666667014360428	0.333333015441895	0.496215118361072
	5	1	0.000000000000000	0.000000000000000	0.812306024271412
	6	1	0.000000000000000	0.000000000000000	0.312306024271412
	7	1	0.333332985639572	0.666666984558105	0.396294839254210
	8	1	0.666667014360428	0.333333015441895	0.896294839254210
	9	1	0.333332985639572	0.666666984558105	0.214534622546411
	10	1	0.666667014360428	0.333333015441895	0.714534622546411
 Feature	from	C2Hf8_--_randSpg_with_spg_of:_186
 Feature	elements	CHf
 Feature	PRAPs-ID	URX_35
END_CFG

BEGIN_CFG
 Size
	10
 Supercell
	5.847964440129074 0.0 0.0
	-2.923982207944234 5.06448577257748 0.0
	0.0 0.0 6.803022783316956
 AtomData:  id type	direct_x	direct_y	direct_z	
	1	0	0.333332985639572	0.666666984558105	0.076397509438167
	2	0	0.666667014360428	0.333333015441895	0.576397509438167
	3	1	0.000000000000000	0.000000000000000	0.708381000402424
	4	1	0.000000000000000	0.000000000000000	0.208381000402424
	5	1	0.333332985639572	0.666666984558105	0.617303727771933
	6	1	0.666667014360428	0.333333015441895	0.117303727771933
	7	1	0.333332985639572	0.666666984558105	0.336803544123891
	8	1	0.666667014360428	0.333333015441895	0.836803544123891
	9	1	0.000000000000000	0.000000000000000	0.408947747513216
	10	1	0.000000000000000	0.000000000000000	0.908947747513216
 Feature	from	C2Hf8_--_randSpg_with_spg_of:_186
 Feature	elements	CHf
 Feature	PRAPs-ID	URX_36
END_CFG

BEGIN_CFG
 Size
	10
 Supercell
	7.317228310995988 0.0 0.0
	-3.658614140332542 6.336905611369004 0.0
	0.0 0.0 4.401884990571259
 AtomData:  id type	direct_x	direct_y	direct_z	
	1	0	0.333332985639572	0.666666984558105	0.250000000000000
	2	0	0.666667014360428	0.333333015441895	0.750000000000000
	3	1	0.500000000000000	0.000000000000000	0.000000000000000
	4	1	0.000000000000000	0.500000000000000	0.000000000000000
	5	1	0.500000000000000	0.500000000000000	0.000000000000000
	6	1	0.500000000000000	0.000000000000000	0.500000000000000
	7	1	0.000000000000000	0.500000000000000	0.500000000000000
	8	1	0.500000000000000	0.500000000000000	0.500000000000000
	9	1	0.000000000000000	0.000000000000000	0.000000000000000
	10	1	0.000000000000000	0.000000000000000	0.500000000000000
 Feature	from	C2Hf8_--_randSpg_with_spg_of:_194
 Feature	elements	CHf
 Feature	PRAPs-ID	URX_37
END_CFG

BEGIN_CFG
 Size
	10
 Supercell
	5.441317183231551 0.0 0.0
	-2.720658580338277 4.712318917238376 0.0
	0.0 0.0 8.586329043607527
 AtomData:  id type	direct_x	direct_y	direct_z	
	1	0	0.333332985639572	0.666666984558105	0.250000000000000
	2	0	0.666667014360428	0.333333015441895	0.750000000000000
	3	1	0.500000000000000	0.000000000000000	0.000000000000000
	4	1	0.000000000000000	0.500000000000000	0.000000000000000
	5	1	0.500000000000000	0.500000000000000	0.000000000000000
	6	1	0.500000000000000	0.000000000000000	0.500000000000000
	7	1	0.000000000000000	0.500000000000000	0.500000000000000
	8	1	0.500000000000000	0.500000000000000	0.500000000000000
	9	1	0.000000000000000	0.000000000000000	0.250000000000000
	10	1	0.000000000000000	0.000000000000000	0.750000000000000
 Feature	from	C2Hf8_--_randSpg_with_spg_of:_194
 Feature	elements	CHf
 Feature	PRAPs-ID	URX_38
END_CFG

BEGIN_CFG
 Size
	10
 Supercell
	5.466927554326591 0.0 0.0
	-2.733463765832717 4.734498149237671 0.0
	0.0 0.0 8.040266654057678
 AtomData:  id type	direct_x	direct_y	direct_z	