BEGIN_CFG
 Size
	4
 Supercell
	1.233848     -2.137087     -0.000000
	1.233848      2.137087      0.000000
	0.000000      0.000000      8.256805
 AtomData:  id type	cartes_x	cartes_y	cartes_z	fx	fy	fz
	1	0	0.000000	0.000000	6.192604	0.000000	0.000000	0.000000
	2	0	0.000000	0.000000	2.064201	0.000000	0.000000	0.000000
	3	0	1.233848	0.712364	6.192604	0.000000	0.000000	0.000000
	4	0	1.233848	-0.712364	2.064201	0.000000	0.000000	0.000000
 Energy
	-36.890200000000
 PlusStress:  xx	yy	zz	yz	xz	xy
	-0.16000	-0.16000	-0.04000	0.00000	0.00000	0.00000
 Feature	EFS_by	vasp
 Feature	elements	C
 Feature	enthalpy_formation_atom	-0.002201
 Feature	from	aflow.org:0904a407dfa958a3
 Feature	mindist	1.424723
 Feature	PRAPs-ID	REF_1
END_CFG

BEGIN_CFG
 Size
	2
 Supercell
	1.600221     -2.771663     -0.000000
	1.600221      2.771663     -0.000000
	0.000000      0.000000      5.056971
 AtomData:  id type	cartes_x	cartes_y	cartes_z	fx	fy	fz
	1	1	1.600221	-0.923890	3.792728	0.000000	0.000000	0.000000
	2	1	1.600221	0.923890	1.264243	0.000000	0.000000	0.000000
 Energy
	-19.906700000000
 PlusStress:  xx	yy	zz	yz	xz	xy
	0.11000	0.11000	0.03000	0.00000	0.00000	0.00000
 Feature	EFS_by	vasp
 Feature	elements	Hf
 Feature	enthalpy_formation_atom	-0.0004205
 Feature	from	aflow.org:ICSD_WEB/HEX/Hf1_ICSD_426944
 Feature	mindist	3.131693
 Feature	PRAPs-ID	REF_2
END_CFG

