BEGIN_CFG
 Size
    2
 Supercell
         1.504070     -2.605260      0.000000
         1.504070      2.605260      0.000000
         0.000000      0.000000      2.931190
 AtomData:  id type       cartes_x      cartes_y      cartes_z           fx          fy          fz
             1    0       1.504070      0.868470      1.465590     0.000000    0.000879    0.000000
             2    1       0.000000      0.000120      0.000000     0.000000   -0.000879    0.000000
 Energy
        -17.223800000000
 PlusStress:  xx          yy          zz          yz          xz          xy
        -3.01352    -3.01625    -4.03223     0.00000     0.00000     0.00000
 Feature   PRAPs-ID	DFT_2
 Feature   elements	CMo
 Feature   from	aflow.org/JSON/CMo/877b232d6378c18e/relax-step=2
 Feature   mindist	2.272490
END_CFG

BEGIN_CFG
 Size
    12
 Supercell
         1.552540     -2.689060      0.000000
         1.552540      2.689060      0.000000
         0.000000      0.000000     15.295100
 AtomData:  id type       cartes_x      cartes_y      cartes_z           fx          fy          fz
             1    0       0.000000      0.000000      0.000000     0.000000    0.000000    0.000000
             2    0       0.000000      0.000000      7.647550     0.000000    0.000000    0.000000
             3    0       1.552540      0.896470     10.201100     0.000000   -0.001109   -0.043208
             4    0       1.552540     -0.896470      2.553520     0.000000    0.001109   -0.043208
             5    0       1.552540     -0.896470      5.094030     0.000000    0.001109    0.043208
             6    0       1.552540      0.896470     12.741600     0.000000   -0.001109    0.043208
             7    1       0.000000     -0.000060      3.823770     0.000000   -0.001155    0.000000
             8    1       0.000000      0.000060     11.471300     0.000000    0.001155    0.000000
             9    1       1.552540      0.896510      1.241100     0.000000   -0.000100   -0.924240
            10    1       1.552540     -0.896510      8.888650     0.000000    0.000100   -0.924240
            11    1       1.552540     -0.896510     14.054000     0.000000    0.000100    0.924240
            12    1       1.552540      0.896510      6.406450     0.000000   -0.000100    0.924240
 Energy
       -100.977000000000
 PlusStress:  xx          yy          zz          yz          xz          xy
        -4.01979    -4.01820     2.89348     0.00000     0.00000     0.00000
 Feature   PRAPs-ID	DFT_16
 Feature   elements	CMo
 Feature   from	aflow.org/JSON/CMo/a53e10bc3da15f83/relax-step=4
 Feature   mindist	2.180267
END_CFG

BEGIN_CFG
 Size
    12
 Supercell
         1.541540     -2.670100      0.000000
         1.541540      2.670100      0.000000
         0.000000      0.000000     15.495300
 AtomData:  id type       cartes_x      cartes_y      cartes_z           fx          fy          fz
             1    0       0.000000      0.000000      0.000000     0.000000    0.000000    0.000000
             2    0       0.000000      0.000000      7.747640     0.000000    0.000000    0.000000
             3    0       1.541540      0.890080     10.323300     0.000000   -0.000186    0.005364
             4    0       1.541540     -0.890080      2.575620     0.000000    0.000186    0.005364
             5    0       1.541540     -0.890080      5.172010     0.000000    0.000186   -0.005364
             6    0       1.541540      0.890080     12.919700     0.000000   -0.000186   -0.005364
             7    1       0.000000     -0.000090      3.873820     0.000000    0.000044    0.000000
             8    1       0.000000      0.000090     11.621500     0.000000   -0.000044    0.000000
             9    1       1.541540      0.890180      1.184450     0.000000   -0.000309   -0.009414
            10    1       1.541540     -0.890180      8.932080     0.000000    0.000309   -0.009414
            11    1       1.541540     -0.890180     14.310800     0.000000    0.000309    0.009414
            12    1       1.541540      0.890180      6.563190     0.000000   -0.000309    0.009414
 Energy
       -101.170000000000
 PlusStress:  xx          yy          zz          yz          xz          xy
        -0.76511    -0.76909    -0.83597     0.00000     0.00000     0.00000
 Feature   PRAPs-ID	DFT_20
 Feature   elements	CMo
 Feature   from	aflow.org/JSON/CMo/a53e10bc3da15f83/relax-step=8
 Feature   mindist	2.137993
END_CFG

BEGIN_CFG
 Size
    12
 Supercell
         1.539280     -2.666140      0.000000
         1.539280      2.666140      0.000000
         0.000000      0.000000     15.465800
 AtomData:  id type       cartes_x      cartes_y      cartes_z           fx          fy          fz
             1    0       0.000000      0.000000      0.000000     0.000000    0.000000    0.000000
             2    0       0.000000      0.000000      7.732910     0.000000    0.000000    0.000000
             3    0       1.539280      0.888750     10.303400     0.000000   -0.000040    0.001498
             4    0       1.539280     -0.888750      2.570480     0.000000    0.000040    0.001498
             5    0       1.539280     -0.888750      5.162430     0.000000    0.000040   -0.001498
             6    0       1.539280      0.888750     12.895300     0.000000   -0.000040   -0.001498
             7    1       1.539280      2.666050      3.866460     0.000000    0.000145    0.000000
             8    1       1.539280     -2.666050     11.599400     0.000000   -0.000145    0.000000
             9    1       1.539280      0.888830      1.181500     0.000000   -0.000313    0.017654
            10    1       1.539280     -0.888830      8.914410     0.000000    0.000313    0.017654
            11    1       1.539280     -0.888830     14.284300     0.000000    0.000313   -0.017654
            12    1       1.539280      0.888830      6.551410     0.000000   -0.000313   -0.017654
 Energy
       -101.182000000000
 PlusStress:  xx          yy          zz          yz          xz          xy
         0.48648     0.48648     0.51341     0.00000     0.00000     0.00000
 Feature   PRAPs-ID	DFT_24
 Feature   elements	CMo
 Feature   from	aflow.org/JSON/CMo/a53e10bc3da15f83/relax-step=12
 Feature   mindist	2.134191
END_CFG

BEGIN_CFG
 Size
    8
 Supercell
         1.509480     -2.614510      0.000000
         1.509480      2.614510      0.000000
         0.000000      0.000000     10.848200
 AtomData:  id type       cartes_x      cartes_y      cartes_z           fx          fy          fz
             1    0       0.000000      0.000000      0.000000     0.000000    0.000000    0.000000
             2    0       0.000000      0.000000      5.424110     0.000000    0.000000    0.000000
             3    0       1.509480      0.871460      8.136170     0.000000    0.000174    0.000000
             4    0       1.509480     -0.871460      2.712060     0.000000   -0.000174    0.000000
             5    1       1.509480      0.871540      1.312640     0.000000    0.000115   -0.203972
             6    1       1.509480     -0.871540      6.736750     0.000000   -0.000115   -0.203972
             7    1       1.509480     -0.871540      9.535590     0.000000   -0.000115    0.203972
             8    1       1.509480      0.871540      4.111470     0.000000    0.000115    0.203972
 Energy
        -67.756800000000
 PlusStress:  xx          yy          zz          yz          xz          xy
        -0.17476    -0.17476    -0.42862     0.00000     0.00000     0.00000
 Feature   PRAPs-ID	DFT_45
 Feature   elements	CMo
 Feature   from	aflow.org/JSON/CMo/84cfaa4ae602bce3/relax-step=7
 Feature   mindist	2.181946
END_CFG

BEGIN_CFG
 Size
    8
 Supercell
         1.519560     -2.632010      0.000000
         1.519560      2.632010      0.000000
         0.000000      0.000000     10.715300
 AtomData:  id type       cartes_x      cartes_y      cartes_z           fx          fy          fz
             1    0       0.000000      0.000000      0.000000     0.000000    0.000000    0.000000
             2    0       0.000000      0.000000      5.357640     0.000000    0.000000    0.000000
             3    0       1.519560      0.877250      8.036470     0.000000    0.000501    0.000000
             4    0       1.519560     -0.877250      2.678820     0.000000   -0.000501    0.000000
             5    1       1.519560      0.877340      1.281340     0.000000    0.000139   -0.034824
             6    1       1.519560     -0.877340      6.638990     0.000000   -0.000139   -0.034824
             7    1       1.519560     -0.877340      9.433950     0.000000   -0.000139    0.034824
             8    1       1.519560      0.877340      4.076300     0.000000    0.000139    0.034824
 Energy
        -67.779100000000
 PlusStress:  xx          yy          zz          yz          xz          xy
        -0.11662    -0.11823    -0.18724     0.00000     0.00000     0.00000
 Feature   PRAPs-ID	DFT_51
 Feature   elements	CMo
 Feature   from	aflow.org/JSON/CMo/84cfaa4ae602bce3/relax-step=13
 Feature   mindist	2.172699
END_CFG

BEGIN_CFG
 Size
    8
 Supercell
         1.490010     -2.580740      0.000000
         1.490010      2.580740      0.000000
         0.000000      0.000000     11.147900
 AtomData:  id type       cartes_x      cartes_y      cartes_z           fx          fy          fz
             1    0       0.000000      0.000000      0.000000     0.000000    0.000000    0.000000
             2    0       0.000000      0.000000      5.573930     0.000000    0.000000    0.000000
             3    0       1.490010      0.860360      8.360890     0.000000   -0.001625    0.000000
             4    0       1.490010     -0.860360      2.786960     0.000000    0.001625    0.000000
             5    1       1.490010      0.860390      1.369160     0.000000   -0.000921   -0.309129
             6    1       1.490010     -0.860390      6.943080     0.000000    0.000921   -0.309129
             7    1       1.490010     -0.860390      9.778690     0.000000    0.000921    0.309129
             8    1       1.490010      0.860390      4.204770     0.000000   -0.000921    0.309129
 Energy
        -67.708500000000
 PlusStress:  xx          yy          zz          yz          xz          xy
        -0.10381    -0.10328    -2.92226     0.00000     0.00000     0.00000
 Feature   PRAPs-ID	DFT_65
 Feature   elements	CMo
 Feature   from	aflow.org/JSON/CMo/3b49b8bca1467bbc/relax-step=3
 Feature   mindist	2.198676
END_CFG

BEGIN_CFG
 Size
    2
 Supercell
         0.000000      2.197960      2.197960
         2.197960      0.000000      2.197960
         2.197960      2.197960      0.000000
 AtomData:  id type       cartes_x      cartes_y      cartes_z           fx          fy          fz
             1    0       2.197960      2.197960      2.197960     0.000000    0.000000    0.000000
             2    1       0.000000      0.000000      0.000000     0.000000    0.000000    0.000000
 Energy
        -16.760100000000
 PlusStress:  xx          yy          zz          yz          xz          xy
        -0.06256    -0.06256    -0.06256     0.00000     0.00000     0.00000
 Feature   PRAPs-ID	DFT_81
 Feature   elements	CMo
 Feature   from	aflow.org/JSON/CMo/768ceabdd3106f75/relax-step=5
 Feature   mindist	2.197960
END_CFG

BEGIN_CFG
 Size
    2
 Supercell
         0.000000      2.201540      2.201540
         2.201540      0.000000      2.201540
         2.201540      2.201540      0.000000
 AtomData:  id type       cartes_x      cartes_y      cartes_z           fx          fy          fz
             1    0       0.000000      0.000000      0.000000     0.000000    0.000000    0.000000
             2    1       2.201540      2.201540      2.201540     0.000000    0.000000    0.000000
 Energy
        -16.758100000000
 PlusStress:  xx          yy          zz          yz          xz          xy
        -0.23909    -0.23909    -0.23909     0.00000     0.00000     0.00000
 Feature   PRAPs-ID	DFT_86
 Feature   elements	CMo
 Feature   from	aflow.org/JSON/CMo/fd34dee078319bb9/relax-step=3
 Feature   mindist	2.201540
END_CFG

BEGIN_CFG
 Size
    2
 Supercell
         0.000000      2.195320      2.195320
         2.195320      0.000000      2.195320
         2.195320      2.195320      0.000000
 AtomData:  id type       cartes_x      cartes_y      cartes_z           fx          fy          fz
             1    0       0.000000      0.000000      0.000000     0.000000    0.000000    0.000000
             2    1       2.195320      2.195320      2.195320     0.000000    0.000000    0.000000
 Energy
        -16.759900000000
 PlusStress:  xx          yy          zz          yz          xz          xy
         0.13762     0.13762     0.13762     0.00000     0.00000     0.00000
 Feature   PRAPs-ID	DFT_90
 Feature   elements	CMo
 Feature   from	aflow.org/JSON/CMo/fd34dee078319bb9/relax-step=7
 Feature   mindist	2.195320
END_CFG

BEGIN_CFG
 Size
    2
 Supercell
         0.000000      2.197650      2.197650
         2.197650      0.000000      2.197650
         2.197650      2.197650      0.000000
 AtomData:  id type       cartes_x      cartes_y      cartes_z           fx          fy          fz
             1    0       0.000000      0.000000      0.000000     0.000000    0.000000    0.000000
             2    1       2.197650      2.197650      2.197650     0.000000    0.000000    0.000000
 Energy
        -16.758700000000
 PlusStress:  xx          yy          zz          yz          xz          xy
         0.01338     0.01338     0.01338     0.00000     0.00000     0.00000
 Feature   PRAPs-ID	DFT_96
 Feature   elements	CMo
 Feature   from	aflow.org/JSON/CMo/c26e5f22dedda7c4/relax-step=5
 Feature   mindist	2.197650
END_CFG

BEGIN_CFG
 Size
    2
 Supercell
         0.000000      2.392260      2.392260
         2.392260      0.000000      2.392260
         2.392260      2.392260      0.000000
 AtomData:  id type       cartes_x      cartes_y      cartes_z           fx          fy          fz
             1    0       3.588390      3.588390      3.588390     0.000000    0.000000    0.000000
             2    1       0.000000      0.000000      0.000000     0.000000    0.000000    0.000000
 Energy
        -16.184000000000
 PlusStress:  xx          yy          zz          yz          xz          xy
        -1.66167    -1.66167    -1.66167     0.00000     0.00000     0.00000
 Feature   PRAPs-ID	DFT_101
 Feature   elements	CMo
 Feature   from	aflow.org/JSON/CMo/f97128015d6366e7/relax-step=2
 Feature   mindist	2.071758
END_CFG

BEGIN_CFG
 Size
    2
 Supercell
         0.000000      2.195000      2.195000
         2.195000      0.000000      2.195000
         2.195000      2.195000      0.000000
 AtomData:  id type       cartes_x      cartes_y      cartes_z           fx          fy          fz
             1    0       2.195000      2.195000      2.195000     0.000000    0.000000    0.000000
             2    1       0.000000      0.000000      0.000000     0.000000    0.000000    0.000000
 Energy
        -16.761500000000
 PlusStress:  xx          yy          zz          yz          xz          xy
         0.15023     0.15023     0.15023     0.00000     0.00000     0.00000
 Feature   PRAPs-ID	DFT_111
 Feature   elements	CMo
 Feature   from	aflow.org/JSON/CMo/e6168f280fcabded/relax-step=1
 Feature   mindist	2.195000
END_CFG

BEGIN_CFG
 Size
    12
 Supercell
         4.816760      0.000000      0.000000
         0.000000      5.264330      0.000000
         0.000000      0.000000      6.074780
 AtomData:  id type       cartes_x      cartes_y      cartes_z           fx          fy          fz
             1    0       0.000000      1.316080      2.284370     0.000000    0.000000   -0.258428
             2    0       2.408380      3.948250      0.753020     0.000000    0.000000    0.258428
             3    0       0.000000      3.948250      3.790410     0.000000    0.000000    0.258428
             4    0       2.408380      1.316080      5.321760     0.000000    0.000000   -0.258428
             5    1       3.620010      0.442210      0.727640     0.289723   -0.265973    0.295038
             6    1       3.605120      3.074380      2.309750    -0.289723   -0.265973   -0.295038
             7    1       1.196740      2.189950      0.727640    -0.289723    0.265973    0.295038
             8    1       1.211630      4.822120      2.309750     0.289723    0.265973   -0.295038
             9    1       1.196740      4.822120      5.347140    -0.289723    0.265973   -0.295038
            10    1       1.211630      2.189950      3.765030     0.289723    0.265973    0.295038
            11    1       3.620010      3.074380      5.347140     0.289723   -0.265973   -0.295038
            12    1       3.605120      0.442210      3.765030    -0.289723   -0.265973    0.295038
 Energy
       -102.094000000000
 PlusStress:  xx          yy          zz          yz          xz          xy
        -3.47365    -1.85075     0.79991     0.00000     0.00000     0.00000
 Feature   PRAPs-ID	DFT_136
 Feature   elements	CMo
 Feature   from	aflow.org/JSON/CMo/98524b54e9f90ae7/relax-step=8
 Feature   mindist	2.103343
END_CFG

BEGIN_CFG
 Size
    12
 Supercell
         4.757090      0.000000      0.000000
         0.000000      5.265290      0.000000
         0.000000      0.000000      6.107760
 AtomData:  id type       cartes_x      cartes_y      cartes_z           fx          fy          fz
             1    0       0.000000      1.316320      2.303680     0.000000    0.000000   -0.004057
             2    0       2.378540      3.948970      0.750190     0.000000    0.000000    0.004057
             3    0       0.000000      3.948970      3.804070     0.000000    0.000000    0.004057
             4    0       2.378540      1.316320      5.357560     0.000000    0.000000   -0.004057
             5    1       3.590700      0.418490      0.742130     0.008352   -0.007393   -0.004187
             6    1       3.544930      3.051130      2.311740    -0.008352   -0.007393    0.004187
             7    1       1.166390      2.214150      0.742130    -0.008352    0.007393   -0.004187
             8    1       1.212160      4.846800      2.311740     0.008352    0.007393    0.004187
             9    1       1.166390      4.846800      5.365620    -0.008352    0.007393    0.004187
            10    1       1.212160      2.214150      3.796010     0.008352    0.007393   -0.004187
            11    1       3.590700      3.051130      5.365620     0.008352   -0.007393    0.004187
            12    1       3.544930      0.418490      3.796010    -0.008352   -0.007393   -0.004187
 Energy
       -102.174000000000
 PlusStress:  xx          yy          zz          yz          xz          xy
        -0.03819    -0.19765    -0.17187     0.00000     0.00000     0.00000
 Feature   PRAPs-ID	DFT_144
 Feature   elements	CMo
 Feature   from	aflow.org/JSON/CMo/98524b54e9f90ae7/relax-step=16
 Feature   mindist	2.116350
END_CFG

BEGIN_CFG
 Size
    12
 Supercell
         4.779720      0.000000      0.000000
         0.000000      5.244690      0.000000
         0.000000      0.000000      6.108410
 AtomData:  id type       cartes_x      cartes_y      cartes_z           fx          fy          fz
             1    0       0.000000      1.311170      2.281970     0.000000    0.000000    0.104816
             2    0       2.389860      3.933520      0.772230     0.000000    0.000000   -0.104816
             3    0       0.000000      3.933520      3.826430     0.000000    0.000000   -0.104816
             4    0       2.389860      1.311170      5.336180     0.000000    0.000000    0.104816
             5    1       3.589510      0.428350      0.740650     0.203533   -0.095238    0.092337
             6    1       3.580070      3.050700      2.313560    -0.203533   -0.095238   -0.092337
             7    1       1.190210      2.193990      0.740650    -0.203533    0.095238    0.092337
             8    1       1.199650      4.816340      2.313560     0.203533    0.095238   -0.092337
             9    1       1.190210      4.816340      5.367760    -0.203533    0.095238   -0.092337
            10    1       1.199650      2.193990      3.794850     0.203533    0.095238    0.092337
            11    1       3.589510      3.050700      5.367760     0.203533   -0.095238   -0.092337
            12    1       3.580070      0.428350      3.794850    -0.203533   -0.095238    0.092337
 Energy
       -102.140000000000
 PlusStress:  xx          yy          zz          yz          xz          xy
        -0.61072     0.72349     0.36414     0.00000     0.00000     0.00000
 Feature   PRAPs-ID	DFT_152
 Feature   elements	CMo
 Feature   from	aflow.org/JSON/CMo/88a84be2aa2a8e24/relax-step=5
 Feature   mindist	2.113312
END_CFG

BEGIN_CFG
 Size
    12
 Supercell
         4.754820      0.000000      0.000000
         0.000000      5.262700      0.000000
         0.000000      0.000000      6.109840
 AtomData:  id type       cartes_x      cartes_y      cartes_z           fx          fy          fz
             1    0       0.000000      1.315670      2.305400     0.000000    0.000000   -0.006963
             2    0       2.377410      3.947020      0.749520     0.000000    0.000000    0.006963
             3    0       0.000000      3.947020      3.804440     0.000000    0.000000    0.006963
             4    0       2.377410      1.315670      5.360320     0.000000    0.000000   -0.006963
             5    1       3.588300      0.417750      0.743850     0.008018   -0.011748    0.000581
             6    1       3.543930      3.049100      2.311070    -0.008018   -0.011748   -0.000581
             7    1       1.166520      2.213590      0.743850    -0.008018    0.011748    0.000581
             8    1       1.210890      4.844940      2.311070     0.008018    0.011748   -0.000581
             9    1       1.166520      4.844940      5.365990    -0.008018    0.011748   -0.000581
            10    1       1.210890      2.213590      3.798770     0.008018    0.011748    0.000581
            11    1       3.588300      3.049100      5.365990     0.008018   -0.011748   -0.000581
            12    1       3.543930      0.417750      3.798770    -0.008018   -0.011748    0.000581
 Energy
       -102.168000000000
 PlusStress:  xx          yy          zz          yz          xz          xy
         0.10592     0.00095     0.08779     0.00000     0.00000     0.00000
 Feature   PRAPs-ID	DFT_158
 Feature   elements	CMo
 Feature   from	aflow.org/JSON/CMo/88a84be2aa2a8e24/relax-step=11
 Feature   mindist	2.114490
END_CFG

BEGIN_CFG
 Size
    12
 Supercell
         4.947710      0.000000      0.000000
         0.000000      5.408640      0.000000
         0.000000      0.000000      6.293120
 AtomData:  id type       cartes_x      cartes_y      cartes_z           fx          fy          fz
             1    0       0.000000      4.056480      0.765900     0.000000    0.000000    0.367970
             2    0       2.473850      1.352160      2.380660     0.000000    0.000000   -0.367970
             3    0       0.000000      1.352160      5.527220     0.000000    0.000000   -0.367970
             4    0       2.473850      4.056480      3.912460     0.000000    0.000000    0.367970
             5    1       3.732710      0.443250      0.763230    -0.235910   -0.148517    0.348005
             6    1       3.688860      3.147570      2.383330     0.235910   -0.148517   -0.348005
             7    1       1.215000      2.261070      0.763230     0.235910    0.148517    0.348005
             8    1       1.258850      4.965390      2.383330    -0.235910    0.148517   -0.348005
             9    1       1.215000      4.965390      5.529890     0.235910    0.148517   -0.348005
            10    1       1.258850      2.261070      3.909790    -0.235910    0.148517    0.348005
            11    1       3.732710      3.147570      5.529890    -0.235910   -0.148517   -0.348005
            12    1       3.688860      0.443250      3.909790     0.235910   -0.148517    0.348005
 Energy
       -100.934000000000
 PlusStress:  xx          yy          zz          yz          xz          xy
       -24.44040   -22.17110   -21.98500     0.00000     0.00000     0.00000
 Feature   PRAPs-ID	DFT_163
 Feature   elements	CMo
 Feature   from	aflow.org/JSON/CMo/94d3c17a89f9a8d9/relax-step=2
 Feature   mindist	2.154201
END_CFG

BEGIN_CFG
 Size
    12
 Supercell
         4.757240      0.000000      0.000000
         0.000000      5.258500      0.000000
         0.000000      0.000000      6.111040
 AtomData:  id type       cartes_x      cartes_y      cartes_z           fx          fy          fz
             1    0       0.000000      3.943880      0.748950     0.000000    0.000000    0.010216
             2    0       2.378620      1.314630      2.306570     0.000000    0.000000   -0.010216
             3    0       0.000000      1.314630      5.362090     0.000000    0.000000   -0.010216
             4    0       2.378620      3.943880      3.804470     0.000000    0.000000    0.010216
             5    1       3.547760      0.417220      0.746190    -0.023891   -0.001615   -0.008897
             6    1       3.588100      3.046470      2.309330     0.023891   -0.001615    0.008897
             7    1       1.209480      2.212030      0.746190     0.023891    0.001615   -0.008897
             8    1       1.169140      4.841290      2.309330    -0.023891    0.001615    0.008897
             9    1       1.209480      4.841290      5.364850     0.023891    0.001615    0.008897
            10    1       1.169140      2.212030      3.801710    -0.023891    0.001615   -0.008897
            11    1       3.547760      3.046470      5.364850    -0.023891   -0.001615    0.008897
            12    1       3.588100      0.417220      3.801710     0.023891   -0.001615   -0.008897
 Energy
       -102.171000000000
 PlusStress:  xx          yy          zz          yz          xz          xy
         0.05439     0.22041    -0.01813     0.00000     0.00000     0.00000
 Feature   PRAPs-ID	DFT_175
 Feature   elements	CMo
 Feature   from	aflow.org/JSON/CMo/94d3c17a89f9a8d9/relax-step=14
 Feature   mindist	2.112373
END_CFG

BEGIN_CFG
 Size
    12
 Supercell
         4.757440      0.000000      0.000000
         0.000000      5.263050      0.000000
         0.000000      0.000000      6.113420
 AtomData:  id type       cartes_x      cartes_y      cartes_z           fx          fy          fz
             1    0       0.000000      1.315760      2.305580     0.000000    0.000000    0.007531
             2    0       2.378720      3.947280      0.751130     0.000000    0.000000   -0.007531
             3    0       0.000000      3.947280      3.807840     0.000000    0.000000   -0.007531
             4    0       2.378720      1.315760      5.362290     0.000000    0.000000    0.007531
             5    1       3.587910      0.419570      0.746050     0.015218   -0.020011   -0.009642
             6    1       3.548240      3.051100      2.310660    -0.015218   -0.020011    0.009642
             7    1       1.169520      2.211950      0.746050    -0.015218    0.020011   -0.009642
             8    1       1.209190      4.843470      2.310660     0.015218    0.020011    0.009642
             9    1       1.169520      4.843470      5.367360    -0.015218    0.020011    0.009642
            10    1       1.209190      2.211950      3.802760     0.015218    0.020011   -0.009642
            11    1       3.587910      3.051100      5.367360     0.015218   -0.020011    0.009642
            12    1       3.548240      0.419570      3.802760    -0.015218   -0.020011   -0.009642
 Energy
       -102.168000000000
 PlusStress:  xx          yy          zz          yz          xz          xy
        -0.25222    -0.32483    -0.29140     0.00000     0.00000     0.00000
 Feature   PRAPs-ID	DFT_195
 Feature   elements	CMo
 Feature   from	aflow.org/JSON/CMo/0b403f8f7d59cc17/relax-step=8
 Feature   mindist	2.115074
END_CFG

BEGIN_CFG
 Size
    12
 Supercell
         4.782770      0.000000      0.000000
         0.000000      5.259680      0.000000
         0.000000      0.000000      6.103880
 AtomData:  id type       cartes_x      cartes_y      cartes_z           fx          fy          fz
             1    0       0.000000      1.314920      2.297600     0.000000    0.000000    0.166679
             2    0       2.391390      3.944760      0.754330     0.000000    0.000000   -0.166679
             3    0       0.000000      3.944760      3.806270     0.000000    0.000000   -0.166679
             4    0       2.391390      1.314920      5.349540     0.000000    0.000000    0.166679
             5    1       3.606670      0.432540      0.755220    -0.131050   -0.167540   -0.193701
             6    1       3.567490      3.062380      2.296720     0.131050   -0.167540    0.193701
             7    1       1.176100      2.197290      0.755220     0.131050    0.167540   -0.193701
             8    1       1.215290      4.827130      2.296720    -0.131050    0.167540    0.193701
             9    1       1.176100      4.827130      5.348660     0.131050    0.167540    0.193701
            10    1       1.215290      2.197290      3.807160    -0.131050    0.167540   -0.193701
            11    1       3.606670      3.062380      5.348660    -0.131050   -0.167540    0.193701
            12    1       3.567490      0.432540      3.807160     0.131050   -0.167540   -0.193701
 Energy
       -102.141000000000
 PlusStress:  xx          yy          zz          yz          xz          xy
        -2.00108    -1.28901    -0.29805     0.00000     0.00000     0.00000
 Feature   PRAPs-ID	DFT_202
 Feature   elements	CMo
 Feature   from	aflow.org/JSON/CMo/3381f8eca4b2e0b6/relax-step=3
 Feature   mindist	2.128502
END_CFG

BEGIN_CFG
 Size
    12
 Supercell
         4.759110      0.000000      0.000000
         0.000000      5.267330      0.000000