BEGIN_CFG
 Size
	12
 Supercell
	4.913948704154206 0.0 0.0
	-2.456974341892611 4.255604416571184 0.0
	0.0 0.0 6.539354429773965
 AtomData:  id type	direct_x	direct_y	direct_z	
	1	0	0.333332985639572	0.666666984558105	0.795559956460951
	2	0	0.666667014360428	0.333333015441895	0.295559956460951
	3	0	0.333332985639572	0.666666984558105	0.285114689480463
	4	0	0.666667014360428	0.333333015441895	0.785114689480463
	5	0	0.000000000000000	0.000000000000000	0.888013816385812
	6	0	0.000000000000000	0.000000000000000	0.388013816385812
	7	0	0.333332985639572	0.666666984558105	0.485327959935420
	8	0	0.666667014360428	0.333333015441895	0.985327959935420
	9	0	0.333332985639572	0.666666984558105	0.997865395545736
	10	0	0.666667014360428	0.333333015441895	0.497865395545736
	11	1	0.000000000000000	0.000000000000000	0.667344726133740
	12	1	0.000000000000000	0.000000000000000	0.167344726133740
 Feature	from	C10Mo2_--_randSpg_with_spg_of:_186
 Feature	elements	CMo
 Feature	PRAPs-ID	URX_1
END_CFG

BEGIN_CFG
 Size
	12
 Supercell
	5.071058077695227 0.0 0.0
	-2.535529028337502 4.391665125418364 0.0
	0.0 0.0 6.482636896076162
 AtomData:  id type	direct_x	direct_y	direct_z	
	1	0	0.000000000000000	0.000000000000000	0.138737237823893
	2	0	0.000000000000000	0.000000000000000	0.638737237823893
	3	0	0.000000000000000	0.000000000000000	0.391663353530338
	4	0	0.000000000000000	0.000000000000000	0.891663353530338
	5	0	0.333332985639572	0.666666984558105	0.056150996581524
	6	0	0.666667014360428	0.333333015441895	0.556150996581524
	7	0	0.333332985639572	0.666666984558105	0.525113859832809
	8	0	0.666667014360428	0.333333015441895	0.025113859832809
	9	0	0.333332985639572	0.666666984558105	0.666805799720218
	10	0	0.666667014360428	0.333333015441895	0.166805799720218
	11	1	0.333332985639572	0.666666984558105	0.848584245498332
	12	1	0.666667014360428	0.333333015441895	0.348584245498332
 Feature	from	C10Mo2_--_randSpg_with_spg_of:_186
 Feature	elements	CMo
 Feature	PRAPs-ID	URX_2
END_CFG

BEGIN_CFG
 Size
	12
 Supercell
	4.705166255111327 0.0 0.0
	-2.352583117803887 4.074793511585892 0.0
	0.0 0.0 6.876075528049713
 AtomData:  id type	direct_x	direct_y	direct_z	
	1	0	0.000000000000000	0.000000000000000	0.175425631800395
	2	0	0.000000000000000	0.000000000000000	0.675425631800395
	3	0	0.000000000000000	0.000000000000000	0.935157473637797
	4	0	0.000000000000000	0.000000000000000	0.435157473637797
	5	0	0.333332985639572	0.666666984558105	0.243362751295532
	6	0	0.666667014360428	0.333333015441895	0.743362751295532
	7	0	0.000000000000000	0.000000000000000	0.052110146215151
	8	0	0.000000000000000	0.000000000000000	0.552110146215151
	9	0	0.333332985639572	0.666666984558105	0.734279400092763
	10	0	0.666667014360428	0.333333015441895	0.234279400092763
	11	1	0.333332985639572	0.666666984558105	0.521184322444020
	12	1	0.666667014360428	0.333333015441895	0.021184322444020
 Feature	from	C10Mo2_--_randSpg_with_spg_of:_186
 Feature	elements	CMo
 Feature	PRAPs-ID	URX_3
END_CFG

BEGIN_CFG
 Size
	12
 Supercell
	5.590926902891886 0.0 0.0
	-2.795463439858368 4.841884735296317 0.0
	0.0 0.0 5.389803719028043
 AtomData:  id type	direct_x	direct_y	direct_z	
	1	0	0.333332985639572	0.666666984558105	0.750000000000000
	2	0	0.666667014360428	0.333333015441895	0.250000000000000
	3	0	0.000000000000000	0.000000000000000	0.000000000000000
	4	0	0.000000000000000	0.000000000000000	0.500000000000000
	5	0	0.183266411522374	0.366532823044748	0.250000000000000
	6	0	0.633467176955252	0.816733588477626	0.250000000000000
	7	0	0.183266411522374	0.816733588477626	0.250000000000000
	8	0	0.816733588477626	0.633467176955252	0.750000000000000
	9	0	0.366532823044748	0.183266411522374	0.750000000000000
	10	0	0.816733588477626	0.183266411522374	0.750000000000000
	11	1	0.000000000000000	0.000000000000000	0.250000000000000
	12	1	0.000000000000000	0.000000000000000	0.750000000000000
 Feature	from	C10Mo2_--_randSpg_with_spg_of:_194
 Feature	elements	CMo
 Feature	PRAPs-ID	URX_4
END_CFG

BEGIN_CFG
 Size
	12
 Supercell
	4.994140356455546 0.0 0.0
	-2.497070167877078 4.325052424731551 0.0
	0.0 0.0 7.227978599077234
 AtomData:  id type	direct_x	direct_y	direct_z	
	1	0	0.333332985639572	0.666666984558105	0.011797510423629
	2	0	0.666667014360428	0.333333015441895	0.511797510423629
	3	0	0.666666984558105	0.333332985639572	0.988202489576371
	4	0	0.333333015441895	0.666667014360428	0.488202489576371
	5	0	0.484412512124816	0.968825024249633	0.250000000000000
	6	0	0.031174975750367	0.515587487875184	0.250000000000000
	7	0	0.484412512124816	0.515587487875184	0.250000000000000
	8	0	0.515587487875184	0.031174975750367	0.750000000000000
	9	0	0.968825024249633	0.484412512124816	0.750000000000000
	10	0	0.515587487875184	0.484412512124816	0.750000000000000
	11	1	0.333332985639572	0.666666984558105	0.750000000000000
	12	1	0.666667014360428	0.333333015441895	0.250000000000000
 Feature	from	C10Mo2_--_randSpg_with_spg_of:_194
 Feature	elements	CMo
 Feature	PRAPs-ID	URX_5
END_CFG

BEGIN_CFG
 Size
	12
 Supercell
	5.588351578043143 0.0 0.0
	-2.794175777439333 4.839654438551225 0.0
	0.0 0.0 5.549484244853316
 AtomData:  id type	direct_x	direct_y	direct_z	
	1	0	0.333332985639572	0.666666984558105	0.411976776405232
	2	0	0.666667014360428	0.333333015441895	0.911976776405232
	3	0	0.666666984558105	0.333332985639572	0.588023223594768
	4	0	0.333333015441895	0.666667014360428	0.088023223594768
	5	0	0.165809536924956	0.331619073849912	0.250000000000000
	6	0	0.668380926150088	0.834190463075044	0.250000000000000
	7	0	0.165809536924956	0.834190463075044	0.250000000000000
	8	0	0.834190463075044	0.668380926150088	0.750000000000000
	9	0	0.331619073849912	0.165809536924956	0.750000000000000
	10	0	0.834190463075044	0.165809536924956	0.750000000000000
	11	1	0.333332985639572	0.666666984558105	0.750000000000000
	12	1	0.666667014360428	0.333333015441895	0.250000000000000
 Feature	from	C10Mo2_--_randSpg_with_spg_of:_194
 Feature	elements	CMo
 Feature	PRAPs-ID	URX_6
END_CFG

BEGIN_CFG
 Size
	12
 Supercell
	4.860730898423463 0.0 0.0
	-2.430365439137537 4.209516444811015 0.0
	0.0 0.0 8.396137082660742
 AtomData:  id type	direct_x	direct_y	direct_z	
	1	0	0.000000000000000	0.000000000000000	0.966102768809414
	2	0	0.000000000000000	0.000000000000000	0.466102768809414
	3	1	0.333332985639572	0.666666984558105	0.335279764625888
	4	1	0.666667014360428	0.333333015441895	0.835279764625888
	5	1	0.333332985639572	0.666666984558105	0.062428628727970
	6	1	0.666667014360428	0.333333015441895	0.562428628727970
	7	1	0.000000000000000	0.000000000000000	0.243013177237149
	8	1	0.000000000000000	0.000000000000000	0.743013177237149
	9	1	0.333332985639572	0.666666984558105	0.675436054090968
	10	1	0.666667014360428	0.333333015441895	0.175436054090968
	11	1	0.000000000000000	0.000000000000000	0.603808404590834
	12	1	0.000000000000000	0.000000000000000	0.103808404590834
 Feature	from	C2Mo10_--_randSpg_with_spg_of:_186
 Feature	elements	CMo
 Feature	PRAPs-ID	URX_7
END_CFG

BEGIN_CFG
 Size
	12
 Supercell
	5.29732395250326 0.0 0.0
	-2.648661965272566 4.587617121282379 0.0
	0.0 0.0 7.038080721792511
 AtomData:  id type	direct_x	direct_y	direct_z	
	1	0	0.333332985639572	0.666666984558105	0.056971219724926
	2	0	0.666667014360428	0.333333015441895	0.556971219724926
	3	1	0.000000000000000	0.000000000000000	0.839306052348008
	4	1	0.000000000000000	0.000000000000000	0.339306052348008
	5	1	0.333332985639572	0.666666984558105	0.323844305459484
	6	1	0.666667014360428	0.333333015441895	0.823844305459484
	7	1	0.000000000000000	0.000000000000000	0.611481771318278
	8	1	0.000000000000000	0.000000000000000	0.111481771318278
	9	1	0.333332985639572	0.666666984558105	0.543886982730577
	10	1	0.666667014360428	0.333333015441895	0.043886982730577
	11	1	0.333332985639572	0.666666984558105	0.805428830848443
	12	1	0.666667014360428	0.333333015441895	0.305428830848443
 Feature	from	C2Mo10_--_randSpg_with_spg_of:_186
 Feature	elements	CMo
 Feature	PRAPs-ID	URX_8
END_CFG

BEGIN_CFG
 Size
	12
 Supercell
	5.062281269303452 0.0 0.0
	-2.531140624159804 4.384064186376436 0.0
	0.0 0.0 8.001898893275428
 AtomData:  id type	direct_x	direct_y	direct_z	
	1	0	0.333332985639572	0.666666984558105	0.327024354696075
	2	0	0.666667014360428	0.333333015441895	0.827024354696075
	3	1	0.000000000000000	0.000000000000000	0.214754539810035
	4	1	0.000000000000000	0.000000000000000	0.714754539810035
	5	1	0.333332985639572	0.666666984558105	0.583967623801731
	6	1	0.666667014360428	0.333333015441895	0.083967623801731
	7	1	0.333332985639572	0.666666984558105	0.893604585235727
	8	1	0.666667014360428	0.333333015441895	0.393604585235727
	9	1	0.333332985639572	0.666666984558105	0.087872941626664
	10	1	0.666667014360428	0.333333015441895	0.587872941626664
	11	1	0.333332985639572	0.666666984558105	0.736585107964766
	12	1	0.666667014360428	0.333333015441895	0.236585107964766
 Feature	from	C2Mo10_--_randSpg_with_spg_of:_186
 Feature	elements	CMo
 Feature	PRAPs-ID	URX_9
END_CFG

BEGIN_CFG
 Size
	12
 Supercell
	6.323427491882613 0.0 0.0
	-3.161713732835574 5.476248854525857 0.0
	0.0 0.0 5.516773588423619
 AtomData:  id type	direct_x	direct_y	direct_z	
	1	0	0.000000000000000	0.000000000000000	0.250000000000000
	2	0	0.000000000000000	0.000000000000000	0.750000000000000
	3	1	0.333332985639572	0.666666984558105	0.250000000000000
	4	1	0.666667014360428	0.333333015441895	0.750000000000000
	5	1	0.169643159844461	0.339286319688922	0.250000000000000
	6	1	0.660713680311078	0.830356840155539	0.250000000000000
	7	1	0.169643159844461	0.830356840155539	0.250000000000000
	8	1	0.830356840155539	0.660713680311078	0.750000000000000
	9	1	0.339286319688922	0.169643159844461	0.750000000000000
	10	1	0.830356840155539	0.169643159844461	0.750000000000000
	11	1	0.333332985639572	0.666666984558105	0.750000000000000
	12	1	0.666667014360428	0.333333015441895	0.250000000000000
 Feature	from	C2Mo10_--_randSpg_with_spg_of:_194
 Feature	elements	CMo
 Feature	PRAPs-ID	URX_10
END_CFG

BEGIN_CFG
 Size
	12
 Supercell
	5.562696805130551 0.0 0.0
	-2.781348391036209 4.817436753449902 0.0
	0.0 0.0 6.736043697464307
 AtomData:  id type	direct_x	direct_y	direct_z	
	1	0	0.000000000000000	0.000000000000000	0.000000000000000
	2	0	0.000000000000000	0.000000000000000	0.500000000000000
	3	1	0.333332985639572	0.666666984558105	0.250000000000000
	4	1	0.666667014360428	0.333333015441895	0.750000000000000
	5	1	0.500000000000000	0.000000000000000	0.000000000000000
	6	1	0.000000000000000	0.500000000000000	0.000000000000000
	7	1	0.500000000000000	0.500000000000000	0.000000000000000
	8	1	0.500000000000000	0.000000000000000	0.500000000000000
	9	1	0.000000000000000	0.500000000000000	0.500000000000000
	10	1	0.500000000000000	0.500000000000000	0.500000000000000
	11	1	0.333332985639572	0.666666984558105	0.750000000000000
	12	1	0.666667014360428	0.333333015441895	0.250000000000000
 Feature	from	C2Mo10_--_randSpg_with_spg_of:_194
 Feature	elements	CMo
 Feature	PRAPs-ID	URX_11
END_CFG

BEGIN_CFG
 Size
	12
 Supercell
	5.952250584867894 0.0 0.0
	-2.976125280097504 5.154800223308827 0.0
	0.0 0.0 6.17605068167451
 AtomData:  id type	direct_x	direct_y	direct_z	
	1	0	0.000000000000000	0.000000000000000	0.250000000000000
	2	0	0.000000000000000	0.000000000000000	0.750000000000000
	3	1	0.333332985639572	0.666666984558105	0.250000000000000
	4	1	0.666667014360428	0.333333015441895	0.750000000000000
	5	1	0.149605367515766	0.299210735031533	0.250000000000000
	6	1	0.700789264968467	0.850394632484234	0.250000000000000
	7	1	0.149605367515766	0.850394632484234	0.250000000000000
	8	1	0.850394632484234	0.700789264968467	0.750000000000000
	9	1	0.299210735031533	0.149605367515766	0.750000000000000
	10	1	0.850394632484234	0.149605367515766	0.750000000000000
	11	1	0.000000000000000	0.000000000000000	0.000000000000000
	12	1	0.000000000000000	0.000000000000000	0.500000000000000
 Feature	from	C2Mo10_--_randSpg_with_spg_of:_194
 Feature	elements	CMo
 Feature	PRAPs-ID	URX_12
END_CFG

BEGIN_CFG
 Size
	4
 Supercell
	4.368140482431119 0.0 0.0
	-2.184070232162292 3.782920630311468 0.0
	0.0 0.0 3.439812048162735
 AtomData:  id type	direct_x	direct_y	direct_z	
	1	0	0.333332985639572	0.666666984558105	0.442756903601698
	2	0	0.666667014360428	0.333333015441895	0.942756903601698
	3	1	0.000000000000000	0.000000000000000	0.757192640139975
	4	1	0.000000000000000	0.000000000000000	0.257192640139975
 Feature	from	C2Mo2_--_randSpg_with_spg_of:_186
 Feature	elements	CMo
 Feature	PRAPs-ID	URX_13
END_CFG

BEGIN_CFG
 Size
	4
 Supercell
	3.102611908183362 0.0 0.0
	-1.551305947661307 2.686940734283481 0.0
	0.0 0.0 6.24217206930698
 AtomData:  id type	direct_x	direct_y	direct_z	
	1	0	0.000000000000000	0.000000000000000	0.774660526290725
	2	0	0.000000000000000	0.000000000000000	0.274660526290725
	3	1	0.333332985639572	0.666666984558105	0.130534062029231
	4	1	0.666667014360428	0.333333015441895	0.630534062029231
 Feature	from	C2Mo2_--_randSpg_with_spg_of:_186
 Feature	elements	CMo
 Feature	PRAPs-ID	URX_14
END_CFG

BEGIN_CFG
 Size
	4
 Supercell
	4.019011081545806 0.0 0.0
	-2.00950553244323 3.480565699518979 0.0
	0.0 0.0 3.84071208610663
 AtomData:  id type	direct_x	direct_y	direct_z	
	1	0	0.000000000000000	0.000000000000000	0.813303525542393
	2	0	0.000000000000000	0.000000000000000	0.313303525542393
	3	1	0.333332985639572	0.666666984558105	0.008521289055236
	4	1	0.666667014360428	0.333333015441895	0.508521289055236
 Feature	from	C2Mo2_--_randSpg_with_spg_of:_186
 Feature	elements	CMo
 Feature	PRAPs-ID	URX_15
END_CFG

BEGIN_CFG
 Size
	4
 Supercell
	3.498214346495585 0.0 0.0
	-1.749107165997506 3.02954249613431 0.0
	0.0 0.0 4.800879659715323
 AtomData:  id type	direct_x	direct_y	direct_z	
	1	0	0.000000000000000	0.000000000000000	0.250000000000000
	2	0	0.000000000000000	0.000000000000000	0.750000000000000
	3	1	0.333332985639572	0.666666984558105	0.250000000000000
	4	1	0.666667014360428	0.333333015441895	0.750000000000000
 Feature	from	C2Mo2_--_randSpg_with_spg_of:_194
 Feature	elements	CMo
 Feature	PRAPs-ID	URX_16
END_CFG

BEGIN_CFG
 Size
	4
 Supercell
	4.018364122983356 0.0 0.0
	-2.009182053163346 3.480005416967927 0.0
	0.0 0.0 3.976976030481658
 AtomData:  id type	direct_x	direct_y	direct_z	
	1	0	0.333332985639572	0.666666984558105	0.750000000000000
	2	0	0.666667014360428	0.333333015441895	0.250000000000000
	3	1	0.000000000000000	0.000000000000000	0.000000000000000
	4	1	0.000000000000000	0.000000000000000	0.500000000000000
 Feature	from	C2Mo2_--_randSpg_with_spg_of:_194
 Feature	elements	CMo
 Feature	PRAPs-ID	URX_17
END_CFG

BEGIN_CFG
 Size
	4
 Supercell
	4.203554040462177 0.0 0.0
	-2.101777011518938 3.640384590250928 0.0
	0.0 0.0 3.238963169039339
 AtomData:  id type	direct_x	direct_y	direct_z	
	1	0	0.000000000000000	0.000000000000000	0.250000000000000
	2	0	0.000000000000000	0.000000000000000	0.750000000000000
	3	1	0.333332985639572	0.666666984558105	0.250000000000000
	4	1	0.666667014360428	0.333333015441895	0.750000000000000
 Feature	from	C2Mo2_--_randSpg_with_spg_of:_194
 Feature	elements	CMo
 Feature	PRAPs-ID	URX_18
END_CFG

BEGIN_CFG
 Size
	6
 Supercell
	3.31255845230479 0.0 0.0
	-1.656279219286893 2.86875977518061 0.0
	0.0 0.0 9.360905470045013
 AtomData:  id type	direct_x	direct_y	direct_z	
	1	0	0.333332985639572	0.666666984558105	0.147742529651979
	2	0	0.666667014360428	0.333333015441895	0.647742529651979
	3	1	0.000000000000000	0.000000000000000	0.970293974901733
	4	1	0.000000000000000	0.000000000000000	0.470293974901733
	5	1	0.333332985639572	0.666666984558105	0.877689253024639
	6	1	0.666667014360428	0.333333015441895	0.377689253024639
 Feature	from	C2Mo4_--_randSpg_with_spg_of:_186
 Feature	elements	CMo
 Feature	PRAPs-ID	URX_19
END_CFG

BEGIN_CFG
 Size
	6
 Supercell
	3.888867193360273 0.0 0.0
	-1.944433588620196 3.367857786047296 0.0
	0.0 0.0 6.13961078936154
 AtomData:  id type	direct_x	direct_y	direct_z	
	1	0	0.333332985639572	0.666666984558105	0.286216912664836
	2	0	0.666667014360428	0.333333015441895	0.786216912664836
	3	1	0.333332985639572	0.666666984558105	0.609908199271315
	4	1	0.666667014360428	0.333333015441895	0.109908199271315
	5	1	0.333332985639572	0.666666984558105	0.012546543392671
	6	1	0.666667014360428	0.333333015441895	0.512546543392671
 Feature	from	C2Mo4_--_randSpg_with_spg_of:_186
 Feature	elements	CMo
 Feature	PRAPs-ID	URX_20
END_CFG

BEGIN_CFG
 Size
	6
 Supercell
	5.252709559592306 0.0 0.0
	-2.626354768909556 4.548979923593687 0.0
	0.0 0.0 3.466943726866379
 AtomData:  id type	direct_x	direct_y	direct_z	
	1	0	0.333332985639572	0.666666984558105	0.452822965608852
	2	0	0.666667014360428	0.333333015441895	0.952822965608852
	3	1	0.333332985639572	0.666666984558105	0.996175415276899
	4	1	0.666667014360428	0.333333015441895	0.496175415276899
	5	1	0.000000000000000	0.000000000000000	0.662696150179429
	6	1	0.000000000000000	0.000000000000000	0.162696150179429
 Feature	from	C2Mo4_--_randSpg_with_spg_of:_186
 Feature	elements	CMo
 Feature	PRAPs-ID	URX_21
END_CFG

BEGIN_CFG
 Size
	6
 Supercell
	4.200015115626294 0.0 0.0
	-2.100007549108331 3.637319791436735 0.0
	0.0 0.0 5.939269386956373
 AtomData:  id type	direct_x	direct_y	direct_z	
	1	0	0.333332985639572	0.666666984558105	0.963150150696666
	2	0	0.666667014360428	0.333333015441895	0.463150150696666
	3	1	0.666666984558105	0.333332985639572	0.036849849303334
	4	1	0.333333015441895	0.666667014360428	0.536849849303334
	5	1	0.000000000000000	0.000000000000000	0.000000000000000
	6	1	0.000000000000000	0.000000000000000	0.500000000000000
 Feature	from	C2Mo4_--_randSpg_with_spg_of:_194
 Feature	elements	CMo
 Feature	PRAPs-ID	URX_22
END_CFG

BEGIN_CFG
 Size
	6
 Supercell
	5.057593779689625 0.0 0.0
	-2.528796879362606 4.380004701285277 0.0
	0.0 0.0 3.856315740070205
 AtomData:  id type	direct_x	direct_y	direct_z	
	1	0	0.333332985639572	0.666666984558105	0.250000000000000
	2	0	0.666667014360428	0.333333015441895	0.750000000000000
	3	1	0.333332985639572	0.666666984558105	0.750000000000000
	4	1	0.666667014360428	0.333333015441895	0.250000000000000
	5	1	0.000000000000000	0.000000000000000	0.250000000000000
	6	1	0.000000000000000	0.000000000000000	0.750000000000000
 Feature	from	C2Mo4_--_randSpg_with_spg_of:_194
 Feature	elements	CMo
 Feature	PRAPs-ID	URX_23
END_CFG

BEGIN_CFG
 Size
	6
 Supercell
	3.561799943781424 0.0 0.0
	-1.78089996450864 3.084609238774739 0.0
	0.0 0.0 8.03438035398674
 AtomData:  id type	direct_x	direct_y	direct_z	
	1	0	0.000000000000000	0.000000000000000	0.250000000000000
	2	0	0.000000000000000	0.000000000000000	0.750000000000000
	3	1	0.000000000000000	0.000000000000000	0.000000000000000
	4	1	0.000000000000000	0.000000000000000	0.500000000000000
	5	1	0.333332985639572	0.666666984558105	0.750000000000000
	6	1	0.666667014360428	0.333333015441895	0.250000000000000
 Feature	from	C2Mo4_--_randSpg_with_spg_of:_194
 Feature	elements	CMo
 Feature	PRAPs-ID	URX_24
END_CFG

BEGIN_CFG
 Size
	8
 Supercell
	5.11594441393192 0.0 0.0
	-2.557972196362818 4.430537832935861 0.0
	0.0 0.0 4.754185427720966
 AtomData:  id type	direct_x	direct_y	direct_z	
	1	0	0.333332985639572	0.666666984558105	0.614651168010753
	2	0	0.666667014360428	0.333333015441895	0.114651168010753
	3	1	0.333332985639572	0.666666984558105	0.147162626509580
	4	1	0.666667014360428	0.333333015441895	0.647162626509580
	5	1	0.000000000000000	0.000000000000000	0.879290132585356
	6	1	0.000000000000000	0.000000000000000	0.379290132585356
	7	1	0.000000000000000	0.000000000000000	0.122994479557459
	8	1	0.000000000000000	0.000000000000000	0.622994479557459
 Feature	from	C2Mo6_--_randSpg_with_spg_of:_186
 Feature	elements	CMo
 Feature	PRAPs-ID	URX_25
END_CFG

BEGIN_CFG
 Size
	8
 Supercell
	4.535300043066232 0.0 0.0
	-2.267650012133399 3.927685056506944 0.0
	0.0 0.0 6.326161486625247
 AtomData:  id type	direct_x	direct_y	direct_z	
	1	0	0.333332985639572	0.666666984558105	0.482796264369363
	2	0	0.666667014360428	0.333333015441895	0.982796264369363
	3	1	0.333332985639572	0.666666984558105	0.870388305509798
	4	1	0.666667014360428	0.333333015441895	0.370388305509798
	5	1	0.000000000000000	0.000000000000000	0.960198970723994
	6	1	0.000000000000000	0.000000000000000	0.460198970723994
	7	1	0.000000000000000	0.000000000000000	0.267969480902547
	8	1	0.000000000000000	0.000000000000000	0.767969480902547
 Feature	from	C2Mo6_--_randSpg_with_spg_of:_186
 Feature	elements	CMo
 Feature	PRAPs-ID	URX_26
END_CFG

BEGIN_CFG
 Size
	8
 Supercell
	4.519512485682604 0.0 0.0
	-2.259756233474306 3.914012630730127 0.0
	0.0 0.0 6.455016357801378
 AtomData:  id type	direct_x	direct_y	direct_z	
	1	0	0.333332985639572	0.666666984558105	0.212923312809659
	2	0	0.666667014360428	0.333333015441895	0.712923312809659
	3	1	0.333332985639572	0.666666984558105	0.774585485854770
	4	1	0.666667014360428	0.333333015441895	0.274585485854770
	5	1	0.333332985639572	0.666666984558105	0.520591214452922
	6	1	0.666667014360428	0.333333015441895	0.020591214452922
	7	1	0.000000000000000	0.000000000000000	0.674642838455027
	8	1	0.000000000000000	0.000000000000000	0.174642838455027
 Feature	from	C2Mo6_--_randSpg_with_spg_of:_186
 Feature	elements	CMo
 Feature	PRAPs-ID	URX_27
END_CFG

BEGIN_CFG
 Size
	8
 Supercell
	4.404135248719878 0.0 0.0
	-2.20206761523207 3.814093012363889 0.0
	0.0 0.0 7.24315287308074
 AtomData:  id type	direct_x	direct_y	direct_z	
	1	0	0.124032121686821	0.248064243373641	0.250000000000000
	2	0	0.751935756626359	0.875967878313179	0.250000000000000
	3	1	0.124032121686821	0.875967878313179	0.250000000000000
	4	1	0.875967878313179	0.751935756626359	0.750000000000000
	5	1	0.248064243373641	0.124032121686821	0.750000000000000
	6	1	0.875967878313179	0.124032121686821	0.750000000000000
	7	1	0.333332985639572	0.666666984558105	0.750000000000000
	8	1	0.666667014360428	0.333333015441895	0.250000000000000
 Feature	from	C2Mo6_--_randSpg_with_spg_of:_194
 Feature	elements	CMo
 Feature	PRAPs-ID	URX_28
END_CFG

BEGIN_CFG
 Size
	8
 Supercell
	4.498925453994557 0.0 0.0
	-2.24946271767295 3.896183738275129 0.0
	0.0 0.0 6.238704173978542
 AtomData:  id type	direct_x	direct_y	direct_z	
	1	0	0.000000000000000	0.000000000000000	0.000000000000000
	2	0	0.000000000000000	0.000000000000000	0.500000000000000
	3	1	0.333332985639572	0.666666984558105	0.599785350557005
	4	1	0.666667014360428	0.333333015441895	0.099785350557005
	5	1	0.666666984558105	0.333332985639572	0.400214649442995
	6	1	0.333333015441895	0.666667014360428	0.900214649442995
	7	1	0.333332985639572	0.666666984558105	0.250000000000000
	8	1	0.666667014360428	0.333333015441895	0.750000000000000
 Feature	from	C2Mo6_--_randSpg_with_spg_of:_194
 Feature	elements	CMo
 Feature	PRAPs-ID	URX_29
END_CFG

BEGIN_CFG
 Size
	8
 Supercell
	5.25493900563993 0.0 0.0
	-2.627469491928747 4.550910680509964 0.0
	0.0 0.0 4.804443182275433
 AtomData:  id type	direct_x	direct_y	direct_z	
	1	0	0.500000000000000	0.000000000000000	0.000000000000000
	2	0	0.000000000000000	0.500000000000000	0.000000000000000
	3	1	0.500000000000000	0.500000000000000	0.000000000000000
	4	1	0.500000000000000	0.000000000000000	0.500000000000000
	5	1	0.000000000000000	0.500000000000000	0.500000000000000
	6	1	0.500000000000000	0.500000000000000	0.500000000000000
	7	1	0.333332985639572	0.666666984558105	0.250000000000000
	8	1	0.666667014360428	0.333333015441895	0.750000000000000
 Feature	from	C2Mo6_--_randSpg_with_spg_of:_194
 Feature	elements	CMo
 Feature	PRAPs-ID	URX_30
END_CFG

BEGIN_CFG
 Size
	8
 Supercell
	4.957973584809608 0.0 0.0
	0.0 4.957973584809608 0.0
	0.0 0.0 4.957973584809608
 AtomData:  id type	direct_x	direct_y	direct_z	
	1	0	0.000000000000000	0.500000000000000	0.500000000000000
	2	0	0.500000000000000	0.000000000000000	0.500000000000000
	3	1	0.500000000000000	0.500000000000000	0.000000000000000
	4	1	0.500000000000000	0.000000000000000	0.000000000000000
	5	1	0.000000000000000	0.500000000000000	0.000000000000000
	6	1	0.000000000000000	0.000000000000000	0.500000000000000
	7	1	0.000000000000000	0.000000000000000	0.000000000000000
	8	1	0.500000000000000	0.500000000000000	0.500000000000000
 Feature	from	C2Mo6_--_randSpg_with_spg_of:_229
 Feature	elements	CMo
 Feature	PRAPs-ID	URX_31
END_CFG

BEGIN_CFG
 Size
	8
 Supercell
	4.909522380898582 0.0 0.0
	0.0 4.909522380898582 0.0
	0.0 0.0 4.909522380898582
 AtomData:  id type	direct_x	direct_y	direct_z	
	1	0	0.000000000000000	0.500000000000000	0.500000000000000
	2	0	0.500000000000000	0.000000000000000	0.500000000000000
	3	1	0.500000000000000	0.500000000000000	0.000000000000000
	4	1	0.500000000000000	0.000000000000000	0.000000000000000
	5	1	0.000000000000000	0.500000000000000	0.000000000000000
	6	1	0.000000000000000	0.000000000000000	0.500000000000000
	7	1	0.000000000000000	0.000000000000000	0.000000000000000
	8	1	0.500000000000000	0.500000000000000	0.500000000000000
 Feature	from	C2Mo6_--_randSpg_with_spg_of:_229
 Feature	elements	CMo
 Feature	PRAPs-ID	URX_32
END_CFG

BEGIN_CFG
 Size
	8
 Supercell
	5.042713764651015 0.0 0.0
	0.0 5.042713764651015 0.0
	0.0 0.0 5.042713764651015
 AtomData:  id type	direct_x	direct_y	direct_z	
	1	0	0.000000000000000	0.500000000000000	0.500000000000000
	2	0	0.500000000000000	0.000000000000000	0.500000000000000
	3	1	0.500000000000000	0.500000000000000	0.000000000000000
	4	1	0.500000000000000	0.000000000000000	0.000000000000000
	5	1	0.000000000000000	0.500000000000000	0.000000000000000
	6	1	0.000000000000000	0.000000000000000	0.500000000000000
	7	1	0.000000000000000	0.000000000000000	0.000000000000000
	8	1	0.500000000000000	0.500000000000000	0.500000000000000
 Feature	from	C2Mo6_--_randSpg_with_spg_of:_229
 Feature	elements	CMo
 Feature	PRAPs-ID	URX_33
END_CFG

BEGIN_CFG
 Size
	10
 Supercell
	5.670725597345808 0.0 0.0
	-2.83536278691994 4.910992431977731 0.0
	0.0 0.0 5.183232326546155
 AtomData:  id type	direct_x	direct_y	direct_z	
	1	0	0.333332985639572	0.666666984558105	0.764161706135932
	2	0	0.666667014360428	0.333333015441895	0.264161706135932
	3	1	0.000000000000000	0.000000000000000	0.736968248877938
	4	1	0.000000000000000	0.000000000000000	0.236968248877938
	5	1	0.333332985639572	0.666666984558105	0.383508542105587
	6	1	0.666667014360428	0.333333015441895	0.883508542105587
	7	1	0.333332985639572	0.666666984558105	0.077715001693216
	8	1	0.666667014360428	0.333333015441895	0.577715001693216
	9	1	0.000000000000000	0.000000000000000	0.465269321038112
	10	1	0.000000000000000	0.000000000000000	0.965269321038112
 Feature	from	C2Mo8_--_randSpg_with_spg_of:_186
 Feature	elements	CMo
 Feature	PRAPs-ID	URX_34
END_CFG

BEGIN_CFG
 Size
	10
 Supercell
	5.734379294785327 0.0 0.0
	-2.867189635507774 4.966118151081332 0.0
	0.0 0.0 4.756610297328972
 AtomData:  id type	direct_x	direct_y	direct_z	
	1	0	0.333332985639572	0.666666984558105	0.209561869482607
	2	0	0.666667014360428	0.333333015441895	0.709561869482607
	3	1	0.000000000000000	0.000000000000000	0.314557417823542
	4	1	0.000000000000000	0.000000000000000	0.814557417823542
	5	1	0.333332985639572	0.666666984558105	0.559100579905920
	6	1	0.666667014360428	0.333333015441895	0.059100579905920
	7	1	0.333332985639572	0.666666984558105	0.884645743723201
	8	1	0.666667014360428	0.333333015441895	0.384645743723201
	9	1	0.000000000000000	0.000000000000000	0.067052431056141
	10	1	0.000000000000000	0.000000000000000	0.567052431056141
 Feature	from	C2Mo8_--_randSpg_with_spg_of:_186
 Feature	elements	CMo
 Feature	PRAPs-ID	URX_35
END_CFG

BEGIN_CFG
 Size
	10
 Supercell
	4.695858451957709 0.0 0.0
	-2.347929216246369 4.066732717590297 0.0
	0.0 0.0 7.029940973120818
 AtomData:  id type	direct_x	direct_y	direct_z	
	1	0	0.333332985639572	0.666666984558105	0.473893255760853
	2	0	0.666667014360428	0.333333015441895	0.973893255760853
	3	1	0.333332985639572	0.666666984558105	0.962564210591000
	4	1	0.666667014360428	0.333333015441895	0.462564210591000
	5	1	0.333332985639572	0.666666984558105	0.693833677650931
	6	1	0.666667014360428	0.333333015441895	0.193833677650931
	7	1	0.333332985639572	0.666666984558105	0.203268630503806
	8	1	0.666667014360428	0.333333015441895	0.703268630503806
	9	1	0.000000000000000	0.000000000000000	0.743556871687855
	10	1	0.000000000000000	0.000000000000000	0.243556871687855
 Feature	from	C2Mo8_--_randSpg_with_spg_of:_186
 Feature	elements	CMo
 Feature	PRAPs-ID	URX_36
END_CFG

BEGIN_CFG
 Size
	10
 Supercell
	5.548390738341578 0.0 0.0
	-2.774195357671373 4.805047336165296 0.0
	0.0 0.0 5.408100666734673
 AtomData:  id type	direct_x	direct_y	direct_z	
	1	0	0.000000000000000	0.000000000000000	0.000000000000000
	2	0	0.000000000000000	0.000000000000000	0.500000000000000
	3	1	0.203015282504086	0.406030565008172	0.250000000000000
	4	1	0.593969434991828	0.796984717495914	0.250000000000000
	5	1	0.203015282504086	0.796984717495914	0.250000000000000
	6	1	0.796984717495914	0.593969434991828	0.750000000000000
	7	1	0.406030565008172	0.203015282504086	0.750000000000000
	8	1	0.796984717495914	0.203015282504086	0.750000000000000
	9	1	0.333332985639572	0.666666984558105	0.750000000000000
	10	1	0.666667014360428	0.333333015441895	0.250000000000000
 Feature	from	C2Mo8_--_randSpg_with_spg_of:_194
 Feature	elements	CMo
 Feature	PRAPs-ID	URX_37
END_CFG

BEGIN_CFG
 Size
	10
 Supercell
	5.851100438646191 0.0 0.0
	-2.925550207196293 5.067201626963286 0.0
	0.0 0.0 4.70288203002796
 AtomData:  id type	direct_x	direct_y	direct_z	
	1	0	0.333332985639572	0.666666984558105	0.250000000000000
	2	0	0.666667014360428	0.333333015441895	0.750000000000000
	3	1	0.500000000000000	0.000000000000000	0.000000000000000
	4	1	0.000000000000000	0.500000000000000	0.000000000000000
	5	1	0.500000000000000	0.500000000000000	0.000000000000000
	6	1	0.500000000000000	0.000000000000000	0.500000000000000
	7	1	0.000000000000000	0.500000000000000	0.500000000000000
	8	1	0.500000000000000	0.500000000000000	0.500000000000000
	9	1	0.000000000000000	0.000000000000000	0.250000000000000
	10	1	0.000000000000000	0.000000000000000	0.750000000000000
 Feature	from	C2Mo8_--_randSpg_with_spg_of:_194
 Feature	elements	CMo
 Feature	PRAPs-ID	URX_38
END_CFG

BEGIN_CFG
 Size
	10
 Supercell
	4.889836705494261 0.0 0.0
	-2.444918342612612 4.234722813166803 0.0
	0.0 0.0 7.602262404980737
 AtomData:  id type	direct_x	direct_y	direct_z	