BEGIN_CFG
 Size
	28
 Supercell
	0.124474      7.181597      7.181597
	7.181597      0.124474      7.181597
	7.181597      7.181597      0.124474
 AtomData:  id type	cartes_x	cartes_y	cartes_z	fx	fy	fz
	1	0	5.534050	7.026080	2.599900	-0.137719	-0.116699	0.306934
	2	0	8.711690	7.087170	2.650780	-0.153946	0.172805	-0.521793
	3	0	5.620070	7.237280	11.804880	0.240126	2.796289	-1.099364
	4	0	8.878310	7.033760	11.720150	0.559072	0.405753	0.040939
	5	0	7.087170	2.650780	8.711690	0.172805	-0.521793	-0.153946
	6	0	7.026080	2.599900	5.534050	-0.116699	0.306934	-0.137719
	7	0	7.033760	11.720150	8.878310	0.405753	0.040939	0.559072
	8	0	7.237280	11.804880	5.620070	2.796289	-1.099364	0.240126
	9	0	11.720150	8.878310	7.033760	0.040939	0.559072	0.405753
	10	0	11.804880	5.620070	7.237280	-1.099364	0.240126	2.796289
	11	0	2.650780	8.711690	7.087170	-0.521793	-0.153946	0.172805
	12	0	2.599900	5.534050	7.026080	0.306934	-0.137719	-0.116699
	13	0	7.063880	8.767780	4.626200	-0.123125	0.428678	0.050545
	14	0	7.106340	5.528770	4.651640	-0.213200	-0.632825	-0.154506
	15	0	6.949590	8.823430	9.801880	0.148336	-0.129572	-0.238844
	16	0	7.228710	5.638180	9.655640	-0.063664	-0.105667	0.543072
	17	0	4.651640	7.106340	5.528770	-0.154506	-0.213200	-0.632825
	18	0	4.626200	7.063880	8.767780	0.050545	-0.123125	0.428678
	19	0	9.655640	7.228710	5.638180	0.543072	-0.063664	-0.105667
	20	0	9.801880	6.949590	8.823430	-0.238844	0.148336	-0.129572
	21	0	5.638180	9.655640	7.228710	-0.105667	0.543072	-0.063664
	22	0	8.823430	9.801880	6.949590	-0.129572	-0.238844	0.148336
	23	0	5.528770	4.651640	7.106340	-0.632825	-0.154506	-0.213200
	24	0	8.767780	4.626200	7.063880	0.428678	0.050545	-0.123125
	25	0	14.466700	14.466700	14.466700	0.561266	0.561266	0.561266
	26	0	7.198430	7.198430	7.198430	0.318264	0.318264	0.318264
	27	1	12.184400	12.184400	12.184400	-3.241228	-3.241228	-3.241228
	28	1	4.475440	4.475440	4.475440	0.360073	0.360073	0.360073
 Energy
	-259.724454400000
 PlusStress:  xx	yy	zz	yz	xz	xy
	5.48366	5.48366	5.48366	2.07768	2.07768	2.07768
 Feature	EFS_by	VASP
 Feature	from	VASP/ALS/HfMo/OUTCAR0/step=1
 Feature	MV_grade	7.283687
 Feature	PRAPs-ID	DFT_5187-DFT-step1
 Feature	elements	HfMo
 Feature	index	5187
 Feature	min_dist	2.798966
 Feature	mindist	2.912651
END_CFG

BEGIN_CFG
 Size
	12
 Supercell
	4.946586     -0.000647      0.000012
	-2.472376      4.282271      0.000004
	0.000002      0.000000      9.675391
 AtomData:  id type	cartes_x	cartes_y	cartes_z	fx	fy	fz
	1	0	0.002110	2.855450	0.742640	-0.010280	0.006584	-1.393884
	2	0	0.002090	2.855450	4.270450	-0.009996	-0.003839	-0.255662
	3	0	2.474400	1.427370	5.578020	-0.031400	0.005750	-1.350427
	4	0	2.474400	1.427360	9.109950	-0.015852	0.000416	-0.307578
	5	1	0.000030	0.000140	0.002720	0.003336	-0.005307	-0.633693
	6	1	0.000050	0.000140	4.837670	0.010068	-0.001918	-0.600952
	7	1	-0.004530	1.559610	7.197820	0.133413	-6.954085	0.752025
	8	1	-1.117700	3.496440	7.197820	-6.137186	3.589879	0.757994
	9	1	1.354870	0.783730	2.359960	-6.304405	-3.739839	0.757526
	10	1	1.119230	3.506470	7.197810	6.050875	3.366722	0.752270
	11	1	3.591940	0.788170	2.359940	6.342705	-3.814533	0.759143
	12	1	2.474140	2.707800	2.359950	-0.031279	7.550170	0.763236
 Energy
	-123.132067270000
 PlusStress:  xx	yy	zz	yz	xz	xy
	35.49321	35.63847	-6.72191	0.00249	0.00918	-0.07981
 Feature	EFS_by	VASP
 Feature	from	VASP/ALS/HfMo/OUTCAR1/step=1
 Feature	MV_grade	7.460657
 Feature	PRAPs-ID	DFT_997-DFT-step1
 Feature	elements	HfMo
 Feature	index	997
 Feature	min_dist	2.449372
 Feature	mindist	2.64069
END_CFG

BEGIN_CFG
 Size
	13
 Supercell
	8.643793     -2.897634     -0.339688
	8.643831      2.897531     -0.339502
	7.899090      0.000103      4.700742
 AtomData:  id type	cartes_x	cartes_y	cartes_z	fx	fy	fz
	1	0	14.457810	1.472190	1.072010	-0.800969	0.021163	-0.543762
	2	0	14.458240	-1.472150	1.072180	-0.801253	-0.020298	-0.544742
	3	0	15.758860	-0.000180	4.103390	0.700064	-0.001345	-2.031525
	4	0	10.308200	-1.477590	2.754370	0.110468	0.126980	0.002736
	5	0	11.349170	-0.002020	0.350610	0.096810	0.017543	0.231264
	6	0	10.308080	1.476910	2.753940	0.109627	-0.125395	-0.000815
	7	0	12.935260	-0.000080	3.329820	-0.431090	-0.003489	-0.044308
	8	1	23.721880	-0.000300	3.367200	-0.176721	-0.000013	-1.051363
	9	1	0.862710	0.000600	0.233020	0.413721	-0.000485	0.325049
	10	1	21.364550	-0.000530	3.009010	-0.456340	-0.005266	0.394788
	11	1	3.165950	0.002950	0.841100	1.410245	-0.008183	0.076837
	12	1	16.692790	0.000040	1.550890	-0.309271	0.000104	0.330129
	13	1	8.329900	0.000170	1.702530	0.134710	-0.001316	2.855711
 Energy
	-129.721025960000
 PlusStress:  xx	yy	zz	yz	xz	xy
	4.05436	0.43871	0.08313	0.00083	4.64767	-0.01007
 Feature	EFS_by	VASP
 Feature	from	VASP/ALS/HfMo/OUTCAR10/step=1
 Feature	MV_grade	2.930561
 Feature	PRAPs-ID	DFT_7086-DFT-step1
 Feature	elements	HfMo
 Feature	index	7086
 Feature	min_dist	2.365654
 Feature	mindist	2.429607
END_CFG

BEGIN_CFG
 Size
	13
 Supercell
	8.574249     -2.875526     -0.360149
	8.574249      2.875526     -0.360149
	8.146174      0.000000      4.766411
 AtomData:  id type	cartes_x	cartes_y	cartes_z	fx	fy	fz
	1	0	14.329770	1.452390	0.830580	-0.696972	0.143157	0.247592
	2	0	14.329770	-1.452390	0.830580	-0.696972	-0.143157	0.247592
	3	0	16.059700	-0.000000	4.325680	1.719751	-0.000000	-3.156833
	4	0	10.434180	-1.477360	2.872540	-0.287649	-0.105194	0.048040
	5	0	11.266720	-0.000000	0.412890	0.438059	-0.000000	-0.046441
	6	0	10.434180	1.477360	2.872540	-0.287649	0.105194	0.048040
	7	0	13.230240	0.000000	3.349270	-0.504163	0.000000	-0.620596
	8	1	6.771680	-0.000000	3.911360	-0.586086	0.000000	-0.121612
	9	1	0.907740	0.000000	0.378630	-0.329081	0.000000	-0.372764
	10	1	21.497250	0.000000	2.999800	-0.537357	-0.000000	0.213715
	11	1	3.180760	0.000000	0.845780	1.613383	0.000000	0.173436
	12	1	16.489280	0.000000	1.530380	0.116003	0.000000	1.056373
	13	1	8.335380	-0.000000	1.860030	0.038733	0.000000	2.283458
 Energy
	-130.260613520000
 PlusStress:  xx	yy	zz	yz	xz	xy
	1.61172	-1.04859	-0.15598	0.00000	2.43090	-0.00000
 Feature	EFS_by	VASP
 Feature	from	VASP/ALS/HfMo/OUTCAR100/step=1
 Feature	MV_grade	4.119843
 Feature	PRAPs-ID	DFT_7069-DFT-step1
 Feature	elements	HfMo
 Feature	index	7069
 Feature	min_dist	2.362096
 Feature	mindist	2.445059
END_CFG

BEGIN_CFG
 Size
	3
 Supercell
	2.561614      0.000000     -0.000001
	-1.280812      2.218420      0.000000
	0.000000      0.000000      6.170864
 AtomData:  id type	cartes_x	cartes_y	cartes_z	fx	fy	fz
	1	0	-0.771300	1.335940	2.056960	-0.011293	0.019560	0.000000
	2	0	0.509500	0.882490	4.113920	-0.011293	-0.019560	0.000000
	3	0	1.542600	0.000000	0.000000	0.022586	0.000000	-0.000000
 Energy
	-16.971828820000
 PlusStress:  xx	yy	zz	yz	xz	xy
	43.84190	43.84179	45.68595	-0.00001	-0.00002	-0.00010
 Feature	EFS_by	VASP
 Feature	from	VASP/ALS/HfMo/OUTCAR101/step=1
 Feature	MV_grade	4.370347
 Feature	PRAPs-ID	DFT_5204-DFT-step1
 Feature	elements	HfMo
 Feature	index	nan
 Feature	min_dist	nan
 Feature	mindist	2.417775
END_CFG

BEGIN_CFG
 Size
	13
 Supercell
	8.147323     -2.891861     -0.476148
	8.147323      2.891861     -0.476148
	8.032337      0.000000      4.827101
 AtomData:  id type	cartes_x	cartes_y	cartes_z	fx	fy	fz
	1	0	13.662930	1.483410	0.532660	-0.017430	-0.391071	0.411606
	2	0	13.662930	-1.483410	0.532660	-0.017430	0.391071	0.411606
	3	0	15.752350	-0.000000	4.258150	0.820310	0.000000	-2.033405
	4	0	9.902340	-1.476260	3.005860	0.695573	-0.274701	-0.248592
	5	0	10.788430	-0.000000	0.312540	-0.017361	0.000000	0.465165
	6	0	9.902340	1.476260	3.005860	0.695573	0.274701	-0.248592
	7	0	12.958130	-0.000000	3.180790	-0.953204	0.000000	-0.442989
	8	1	6.655930	0.000000	3.809640	2.032790	-0.000000	0.300555
	9	1	17.131470	-0.000000	-0.403620	-0.233602	-0.000000	0.002511
	10	1	20.789010	-0.000000	2.870780	-3.919893	-0.000000	-0.684013
	11	1	3.139950	0.000000	0.751650	0.832194	0.000000	0.442126
	12	1	15.675320	0.000000	1.590100	0.003966	-0.000000	1.079978
	13	1	8.104330	0.000000	1.739200	0.078517	0.000000	0.544045
 Energy
	-129.972737850000
 PlusStress:  xx	yy	zz	yz	xz	xy
	9.79696	1.50093	1.85872	-0.00000	0.84722	-0.00000
 Feature	EFS_by	VASP
 Feature	from	VASP/ALS/HfMo/OUTCAR102/step=1
 Feature	MV_grade	4.650598
 Feature	PRAPs-ID	DFT_7058-DFT-step1
 Feature	elements	HfMo
 Feature	index	7058
 Feature	min_dist	2.374711
 Feature	mindist	2.659693
END_CFG

BEGIN_CFG
 Size
	12
 Supercell
	4.948656     -0.000784      0.000014
	-2.477022      4.287015      0.000004
	0.000002      0.000000      9.650439
 AtomData:  id type	cartes_x	cartes_y	cartes_z	fx	fy	fz
	1	0	-0.002160	2.857490	0.591820	0.000561	-0.002628	0.012616
	2	0	-0.002160	2.857490	4.135610	-0.001999	-0.008703	0.960405
	3	0	2.472840	1.428360	5.418940	0.005705	-0.005791	-0.015937
	4	0	2.472840	1.428350	8.962320	0.007107	-0.011815	0.951446
	5	1	2.471380	4.285910	9.649340	0.000843	0.009119	0.314417
	6	1	2.471380	4.285910	4.824830	0.003177	0.009041	0.304500
	7	1	0.000660	1.602350	7.269200	-0.058937	-9.327719	-0.414661
	8	1	-1.097420	3.487680	7.269200	-7.875705	4.616148	-0.412615
	9	1	1.387620	0.798300	2.445860	-8.019506	-4.570509	-0.430417
	10	1	1.092290	3.484120	7.269190	7.920361	4.716233	-0.413034
	11	1	3.565090	0.792670	2.445830	7.926786	-4.403283	-0.428774
	12	1	2.469080	2.694980	2.445830	0.091607	8.979907	-0.427946
 Energy
	-121.957203050000
 PlusStress:  xx	yy	zz	yz	xz	xy
	39.80071	39.73542	-5.44519	0.00108	0.00151	0.14345
 Feature	EFS_by	VASP
 Feature	from	VASP/ALS/HfMo/OUTCAR103/step=1
 Feature	MV_grade	10.000079
 Feature	PRAPs-ID	DFT_998-DFT-step1
 Feature	elements	HfMo
 Feature	index	998
 Feature	min_dist	2.449370
 Feature	mindist	2.642512
END_CFG

BEGIN_CFG
 Size
	13
 Supercell
	8.939812     -2.910701     -0.273167
	8.939812      2.910701     -0.273167
	8.115130      0.000000      4.694444
 AtomData:  id type	cartes_x	cartes_y	cartes_z	fx	fy	fz
	1	0	14.995420	1.435330	1.385680	-0.316926	-0.230269	0.082710
	2	0	14.995420	-1.435330	1.385680	-0.316926	0.230269	0.082710
	3	0	15.310390	-0.000000	4.132520	-1.627605	-0.000000	-0.073996
	4	0	10.540890	-1.558810	2.372440	0.329604	0.955560	-0.128709
	5	0	11.732940	-0.000000	0.106990	0.662865	-0.000000	-0.270386
	6	0	10.540890	1.558810	2.372440	0.329604	-0.955560	-0.128709
	7	0	12.817790	-0.000000	3.014860	1.874578	0.000000	-3.417066
	8	1	24.796480	0.000000	3.733790	-0.323587	-0.000000	0.054601
	9	1	9.350190	0.000000	4.648070	1.062324	-0.000000	-0.475934
	10	1	22.388750	0.000000	3.270430	-0.094173	-0.000000	0.584453
	11	1	3.725830	0.000000	0.470590	-2.353135	-0.000000	4.055264
	12	1	17.389470	-0.000000	3.034080	0.982992	-0.000000	-0.605741
	13	1	8.496700	0.000000	1.729610	-0.209615	-0.000000	0.240805
 Energy
	-127.825172260000
 PlusStress:  xx	yy	zz	yz	xz	xy
	3.84793	-6.03523	-3.25427	-0.00000	-3.65341	0.00000
 Feature	EFS_by	VASP
 Feature	from	VASP/ALS/HfMo/OUTCAR104/step=1
 Feature	MV_grade	6.754758
 Feature	PRAPs-ID	DFT_7064-DFT-step1
 Feature	elements	HfMo
 Feature	index	7064
 Feature	min_dist	2.356923
 Feature	mindist	2.533363
END_CFG

BEGIN_CFG
 Size
	13
 Supercell
	9.072353     -2.885927     -0.233477
	9.072353      2.885927     -0.233477
	8.063775      0.000000      4.644858
 AtomData:  id type	cartes_x	cartes_y	cartes_z	fx	fy	fz
	1	0	15.028970	1.371930	1.403100	0.135995	1.005008	-0.767026
	2	0	15.028970	-1.371930	1.403100	0.135995	-1.005008	-0.767026
	3	0	15.601670	0.000000	4.046520	-2.270640	-0.000000	0.369539
	4	0	10.551660	-1.505900	2.249740	0.512516	0.716468	0.288965
	5	0	12.049000	-0.000000	0.243400	1.390516	-0.000000	-1.681707
	6	0	10.551660	1.505900	2.249740	0.512516	-0.716468	0.288965
	7	0	12.892440	-0.000000	3.266190	1.812642	0.000000	-3.112065
	8	1	25.055190	-0.000000	3.689580	-0.589934	-0.000000	1.004505
	9	1	9.324580	-0.000000	4.520780	1.093856	-0.000000	-0.648726
	10	1	22.647210	0.000000	3.111310	-0.811092	0.000000	0.938101
	11	1	3.586640	-0.000000	0.648270	-1.986165	0.000000	3.557714
	12	1	17.764860	-0.000000	3.133010	-0.359177	-0.000000	-0.073785
	13	1	8.336180	-0.000000	1.836520	0.422970	-0.000000	0.602546
 Energy
	-127.753690140000
 PlusStress:  xx	yy	zz	yz	xz	xy
	9.74989	0.18597	-1.91117	0.00000	-5.88796	-0.00000
 Feature	EFS_by	VASP
 Feature	from	VASP/ALS/HfMo/OUTCAR105/step=1
 Feature	MV_grade	5.355453
 Feature	PRAPs-ID	DFT_7064-DFT-step1
 Feature	elements	HfMo
 Feature	index	7064
 Feature	min_dist	2.356923
 Feature	mindist	2.533363
END_CFG

BEGIN_CFG
 Size
	13
 Supercell
	8.539233     -2.866803     -0.372662
	8.539233      2.866803     -0.372662
	8.197844      0.000000      4.791666
 AtomData:  id type	cartes_x	cartes_y	cartes_z	fx	fy	fz
	1	0	14.263920	1.445430	0.750420	-0.618519	0.054224	0.585348
	2	0	14.263920	-1.445430	0.750420	-0.618519	-0.054224	0.585348
	3	0	16.121430	-0.000000	4.384270	1.823726	-0.000000	-3.362710
	4	0	10.443350	-1.470820	2.893450	-0.235403	-0.190028	0.046644
	5	0	11.205660	0.000000	0.390810	0.449335	0.000000	-0.000489
	6	0	10.443350	1.470820	2.893450	-0.235403	0.190028	0.046644
	7	0	13.294660	-0.000000	3.366390	-0.567711	0.000000	-0.980671
	8	1	6.851030	-0.000000	3.907660	-0.829975	-0.000000	0.316967
	9	1	0.929540	-0.000000	0.421510	-0.734754	0.000000	-0.444552
	10	1	21.499510	0.000000	3.014730	-0.695661	0.000000	0.030834
	11	1	3.174910	0.000000	0.840700	1.881398	0.000000	0.217155
	12	1	16.407110	0.000000	1.535740	0.238135	0.000000	1.135844
	13	1	8.318930	0.000000	1.897030	0.143352	0.000000	1.823639
 Energy
	-130.149320460000
 PlusStress:  xx	yy	zz	yz	xz	xy
	2.38056	-0.92165	0.13136	0.00000	2.05680	0.00000
 Feature	EFS_by	VASP
 Feature	from	VASP/ALS/HfMo/OUTCAR106/step=1
 Feature	MV_grade	4.347036
 Feature	PRAPs-ID	DFT_7069-DFT-step1
 Feature	elements	HfMo
 Feature	index	7069
 Feature	min_dist	2.362096
 Feature	mindist	2.445059
END_CFG

BEGIN_CFG
 Size
	12
 Supercell
	4.904292     -0.001717      0.000292
	-2.451076      4.244096     -0.000428
	0.000144     -0.000071      9.686045
 AtomData:  id type	cartes_x	cartes_y	cartes_z	fx	fy	fz
	1	0	0.000790	2.828130	0.513500	0.007268	-0.002313	0.812508
	2	0	0.000210	2.830180	4.157070	0.025761	-0.030540	0.822507
	3	0	2.451550	1.413370	5.357630	0.008712	0.012050	0.824880
	4	0	2.451620	1.413730	9.000400	0.024769	-0.006450	0.807778
	5	1	-2.450560	4.243440	0.009700	-0.014362	0.011544	0.463102
	6	1	2.453050	4.242330	4.851730	-0.008502	0.001903	0.484431
	7	1	0.003450	1.547440	7.316900	-0.092372	-7.320429	-0.688009
	8	1	-1.114610	3.473170	7.319360	-6.213363	3.587793	-0.712267
	9	1	1.342180	0.768190	2.475300	-6.449116	-3.602348	-0.700164
	10	1	1.113340	3.467140	7.319180	6.289926	3.730927	-0.707601
	11	1	3.559210	0.776070	2.477440	6.560881	-3.835702	-0.719781
	12	1	2.458760	2.694740	2.473810	-0.139602	7.453565	-0.687383
 Energy
	-122.607664220000
 PlusStress:  xx	yy	zz	yz	xz	xy
	41.20518	41.42902	-4.18201	0.00429	0.00848	-0.01243
 Feature	EFS_by	VASP
 Feature	from	VASP/ALS/HfMo/OUTCAR107/step=1
 Feature	MV_grade	8.530649
 Feature	PRAPs-ID	DFT_985-DFT-step1
 Feature	elements	HfMo
 Feature	index	985
 Feature	min_dist	2.449371
 Feature	mindist	2.68156
END_CFG

BEGIN_CFG
 Size
	13
 Supercell
	9.088028     -2.920110     -0.237804
	9.088028      2.920110     -0.237804
	7.974092      0.000000      4.642284
 AtomData:  id type	cartes_x	cartes_y	cartes_z	fx	fy	fz
	1	0	15.160000	1.407350	1.457500	-0.492704	0.458653	-0.457203
	2	0	15.160000	-1.407350	1.457500	-0.492704	-0.458653	-0.457203
	3	0	15.339680	-0.000000	4.128680	-0.504063	0.000000	-2.117711
	4	0	10.539040	-1.529320	2.335560	0.615780	1.034259	0.082704
	5	0	11.906990	0.000000	0.180740	1.008241	-0.000000	-0.520225
	6	0	10.539040	1.529320	2.335560	0.615780	-1.034259	0.082704
	7	0	12.873860	0.000000	3.113470	0.988612	0.000000	-2.509018
	8	1	24.931680	0.000000	3.797770	-0.315798	-0.000000	0.679074
	9	1	9.232670	-0.000000	4.608280	1.134272	0.000000	-1.007350
	10	1	22.606230	-0.000000	3.230550	-0.763754	-0.000000	0.563247
	11	1	3.576450	0.000000	0.581590	-1.229317	0.000000	2.887770
	12	1	17.649660	-0.000000	2.925190	-2.232555	-0.000000	0.251391
	13	1	8.434690	0.000000	1.573260	1.668210	0.000000	2.521820
 Energy
	-127.960690830000
 PlusStress:  xx	yy	zz	yz	xz	xy
	4.41751	-5.16909	-2.81191	-0.00000	0.97021	0.00000
 Feature	EFS_by	VASP
 Feature	from	VASP/ALS/HfMo/OUTCAR108/step=1
 Feature	MV_grade	4.822928
 Feature	PRAPs-ID	DFT_7084-DFT-step1
 Feature	elements	HfMo
 Feature	index	7084
 Feature	min_dist	2.356924
 Feature	mindist	2.428745
END_CFG

BEGIN_CFG
 Size
	13
 Supercell
	9.147970     -2.933184     -0.235055
	9.147970      2.933184     -0.235055
	7.921541      0.000000      4.645191
 AtomData:  id type	cartes_x	cartes_y	cartes_z	fx	fy	fz
	1	0	15.181970	1.407550	1.455870	-0.280878	0.663502	-0.689792
	2	0	15.181970	-1.407550	1.455870	-0.280878	-0.663502	-0.689792
	3	0	15.398960	0.000000	4.115250	-0.377098	-0.000000	-1.849072
	4	0	10.530660	-1.522470	2.315270	0.886519	0.889250	0.014257
	5	0	12.041470	-0.000000	0.190600	0.987841	-0.000000	-0.481446
	6	0	10.530660	1.522470	2.315270	0.886519	-0.889250	0.014257
	7	0	12.869470	0.000000	3.213820	1.254404	0.000000	-2.631771
	8	1	24.992600	-0.000000	3.789620	-0.112256	-0.000000	0.886603
	9	1	9.208690	-0.000000	4.582050	0.623677	-0.000000	-1.114425
	10	1	22.677830	0.000000	3.190040	-0.827923	-0.000000	0.585582
	11	1	3.547230	-0.000000	0.610980	-1.168937	-0.000000	2.978852
	12	1	17.752440	0.000000	2.919460	-2.668774	0.000000	0.501590
	13	1	8.421170	0.000000	1.629090	1.077783	0.000000	2.475157
 Energy
	-127.909159450000
 PlusStress:  xx	yy	zz	yz	xz	xy
	3.44666	-6.39952	-5.75586	-0.00000	1.11862	-0.00000
 Feature	EFS_by	VASP
 Feature	from	VASP/ALS/HfMo/OUTCAR11/step=1
 Feature	MV_grade	2.360750
 Feature	PRAPs-ID	DFT_7084-DFT-step1
 Feature	elements	HfMo
 Feature	index	7084
 Feature	min_dist	2.356924
 Feature	mindist	2.428745
END_CFG

BEGIN_CFG
 Size
	13
 Supercell
	9.244106     -2.906746     -0.182598
	9.244106      2.906746     -0.182598
	7.943746      0.000000      4.558573
 AtomData:  id type	cartes_x	cartes_y	cartes_z	fx	fy	fz
	1	0	15.258480	1.404560	1.504500	0.256349	0.936867	-1.064873
	2	0	15.258480	-1.404560	1.504500	0.256349	-0.936867	-1.064873
	3	0	15.811800	-0.000000	4.083800	-1.125151	0.000000	-1.334462
	4	0	10.708770	-1.424940	2.391150	0.552988	-1.466090	0.513625
	5	0	12.259870	-0.000000	0.325200	0.241319	0.000000	-0.997830
	6	0	10.708770	1.424940	2.391150	0.552988	1.466090	0.513625
	7	0	13.133220	-0.000000	3.185020	0.361734	0.000000	0.332052
	8	1	25.114790	0.000000	3.848110	-1.215614	0.000000	0.937779
	9	1	9.068100	0.000000	4.502600	0.830574	0.000000	-0.435355
	10	1	22.642370	0.000000	3.292520	-0.119431	0.000000	0.415406
	11	1	3.455990	0.000000	0.721520	-0.446669	0.000000	0.715293
	12	1	17.676470	0.000000	2.320590	0.654456	0.000000	-0.480886
	13	1	8.654290	-0.000000	1.744880	-0.799893	0.000000	1.950497
 Energy
	-128.616997260000
 PlusStress:  xx	yy	zz	yz	xz	xy
	0.81867	-1.75526	0.18785	0.00000	1.73067	0.00000
 Feature	EFS_by	VASP
 Feature	from	VASP/ALS/HfMo/OUTCAR110/step=1
 Feature	MV_grade	2.431538
 Feature	PRAPs-ID	DFT_7068-DFT-step1
 Feature	elements	HfMo
 Feature	index	7068
 Feature	min_dist	2.362766
 Feature	mindist	2.411368
END_CFG

BEGIN_CFG
 Size
	13
 Supercell
	9.073238     -2.982441     -0.161379
	9.073021      2.982435     -0.161409
	7.909480      0.000002      4.464735
 AtomData:  id type	cartes_x	cartes_y	cartes_z	fx	fy	fz
	1	0	15.402340	1.509310	1.667190	-0.301401	0.481122	-0.049012
	2	0	15.402400	-1.509310	1.667100	-0.301740	-0.481196	-0.049987
	3	0	14.256110	-0.000170	3.845430	-0.417222	0.000939	-0.607446
	4	0	11.012590	-1.479840	2.754620	0.099322	-0.496010	0.691739
	5	0	10.176580	-0.000060	0.063810	0.983727	0.000019	-0.293400
	6	0	11.012580	1.479790	2.754590	0.099259	0.495945	0.691761
	7	0	12.883460	-0.000050	0.938240	0.770864	-0.000538	0.052163
	8	1	25.054630	0.000190	4.098530	-0.418419	0.000468	0.215979
	9	1	1.419640	-0.000040	0.388870	1.136636	0.000099	-0.295564
	10	1	22.710710	0.000330	3.452810	-0.664158	0.000610	-0.320640
	11	1	3.808570	-0.000100	1.034310	0.638432	-0.001135	-0.686424
	12	1	17.396880	-0.000060	2.269610	1.210891	-0.000513	-2.270928
	13	1	8.825720	-0.000000	1.987500	-2.836191	0.000190	2.921758
 Energy
	-128.365338100000
 PlusStress:  xx	yy	zz	yz	xz	xy
	4.81574	-3.14041	11.02611	0.00043	-0.87108	0.00007
 Feature	EFS_by	VASP
 Feature	from	VASP/ALS/HfMo/OUTCAR111/step=1
 Feature	MV_grade	2.917196
 Feature	PRAPs-ID	DFT_7071-DFT-step1
 Feature	elements	HfMo
 Feature	index	7071
 Feature	min_dist	2.353453
 Feature	mindist	2.437444
END_CFG

BEGIN_CFG
 Size
	3
 Supercell
	2.589362      0.000001      0.000004
	-1.294687      2.242452      0.000004
	0.000000      0.000000      6.386614
 AtomData:  id type	cartes_x	cartes_y	cartes_z	fx	fy	fz
	1	0	-0.819320	1.419110	2.128880	-0.039763	0.068871	0.000000
	2	0	0.475360	0.823350	4.257750	-0.039763	-0.068871	-0.000000
	3	0	1.638640	0.000000	0.000010	0.079526	0.000000	0.000000
 Energy
	-19.355625960000
 PlusStress:  xx	yy	zz	yz	xz	xy
	38.67329	38.67327	38.40325	0.00010	0.00006	-0.00009
 Feature	EFS_by	VASP
 Feature	from	VASP/ALS/HfMo/OUTCAR112/step=1
 Feature	MV_grade	2.297337
 Feature	PRAPs-ID	DFT_5204-DFT-step1
 Feature	elements	HfMo
 Feature	index	nan
 Feature	min_dist	nan
 Feature	mindist	2.417775
END_CFG

BEGIN_CFG
 Size
	3
 Supercell
	2.587059      0.000000      0.000002
	-1.293535      2.240457      0.000002
	0.000000      0.000000      6.317005
 AtomData:  id type	cartes_x	cartes_y	cartes_z	fx	fy	fz
	1	0	-0.801660	1.388510	2.105670	-0.041325	0.071576	0.000000
	2	0	0.491870	0.851950	4.211340	-0.041324	-0.071576	-0.000000
	3	0	1.603310	0.000000	0.000000	0.082649	-0.000000	0.000000
 Energy
	-18.838375810000
 PlusStress:  xx	yy	zz	yz	xz	xy
	39.72241	39.72235	40.23078	0.00005	0.00003	-0.00010
 Feature	EFS_by	VASP
 Feature	from	VASP/ALS/HfMo/OUTCAR113/step=1
 Feature	MV_grade	2.815155
 Feature	PRAPs-ID	DFT_5204-DFT-step1
 Feature	elements	HfMo
 Feature	index	nan
 Feature	min_dist	nan
 Feature	mindist	2.417775
END_CFG

BEGIN_CFG
 Size
	13
 Supercell
	8.851294     -2.902395     -0.257948
	8.851421      2.902401     -0.257934
	8.038632     -0.000003      4.613272
 AtomData:  id type	cartes_x	cartes_y	cartes_z	fx	fy	fz
	1	0	15.217280	1.485600	1.304960	0.162408	0.347843	0.270964
	2	0	15.217270	-1.485700	1.304680	0.162524	-0.347626	0.271608
	3	0	14.085620	-0.000330	3.601550	-0.346409	0.002147	-0.296860
	4	0	10.958750	-1.491220	2.915790	1.193303	-0.337290	0.561083
	5	0	9.652800	-0.000050	0.007660	-0.913325	0.000267	2.076797
	6	0	10.958830	1.491240	2.915830	1.193347	0.337372	0.561100
	7	0	12.575720	-0.000040	0.741910	0.100007	-0.000829	0.270445
	8	1	24.835040	0.000140	3.906770	-1.350286	0.000592	0.139151
	9	1	1.459730	0.000030	0.620950	0.555263	0.000200	1.228637
	10	1	22.489930	0.000490	3.243040	-0.852982	-0.000090	-0.433208
	11	1	3.848090	-0.000130	1.030740	1.017997	-0.001336	-0.680041
	12	1	17.165580	0.000010	2.327160	0.433434	-0.000576	-2.635002
	13	1	8.853890	-0.000020	2.711990	-1.355283	-0.000675	-1.334675
 Energy
	-129.501436580000
 PlusStress:  xx	yy	zz	yz	xz	xy
	5.09814	0.15510	6.28739	0.00050	3.57374	0.00134
 Feature	EFS_by	VASP
 Feature	from	VASP/ALS/HfMo/OUTCAR114/step=1
 Feature	MV_grade	2.723007
 Feature	PRAPs-ID	DFT_7057-DFT-step1
 Feature	elements	HfMo
 Feature	index	7057
 Feature	min_dist	2.364062
 Feature	mindist	2.749229
END_CFG

BEGIN_CFG
 Size
	13
 Supercell
	8.569824     -2.884264     -0.345407
	8.585983      2.885909     -0.345243
	8.167833     -0.001282      4.741515
 AtomData:  id type	cartes_x	cartes_y	cartes_z	fx	fy	fz
	1	0	14.914950	1.492130	1.186360	0.053300	-0.022703	0.083988
	2	0	14.907940	-1.499100	1.183870	0.075242	0.061363	0.082855
	3	0	14.033920	-0.015570	3.676670	-0.438479	0.201206	-0.482219
	4	0	10.989200	-1.504820	3.207620	0.514409	0.884025	-0.436500
	5	0	9.241200	-0.002450	-0.276280	-1.802860	0.003350	3.249205
	6	0	10.999310	1.501200	3.203820	0.584322	-0.847282	-0.409024
	7	0	12.096560	-0.001540	0.680030	0.360521	-0.112798	1.033516
	8	1	24.410960	0.007160	3.695350	0.176199	0.007134	-0.209236
	9	1	18.471570	-0.003460	0.175070	1.082732	-0.017530	-0.271676
	10	1	22.123470	0.044740	3.171220	-1.129944	-0.040125	-0.032524
	11	1	3.740450	-0.018250	1.081260	0.936073	-0.072291	-0.373033
	12	1	16.970240	0.001960	2.166270	-0.077724	-0.016146	-1.665055
	13	1	8.859490	0.001990	2.488720	-0.333791	-0.028202	-0.570297
 Energy
	-130.150141930000
 PlusStress:  xx	yy	zz	yz	xz	xy
	2.20522	-1.22317	2.73092	-0.03054	2.38418	0.12051
 Feature	EFS_by	VASP
 Feature	from	VASP/ALS/HfMo/OUTCAR115/step=1
 Feature	MV_grade	3.595690
 Feature	PRAPs-ID	DFT_7057-DFT-step1
 Feature	elements	HfMo
 Feature	index	7057
 Feature	min_dist	2.364062
 Feature	mindist	2.749229
END_CFG

BEGIN_CFG
 Size
	13
 Supercell
	8.737526     -2.880722     -0.291820
	8.737526      2.880722     -0.291820
	8.221880      0.000000      4.662061
 AtomData:  id type	cartes_x	cartes_y	cartes_z	fx	fy	fz
	1	0	14.647630	1.490490	1.002230	-1.050688	-0.142502	-0.309109
	2	0	14.647630	-1.490490	1.002230	-1.050688	0.142502	-0.309109
	3	0	16.166160	-0.000000	4.187500	1.564073	-0.000000	-2.226776
	4	0	10.576360	-1.437020	2.849380	-0.376236	-0.802033	-0.198736
	5	0	11.494440	-0.000000	0.438320	0.542847	0.000000	0.368255
	6	0	10.576360	1.437020	2.849380	-0.376236	0.802033	-0.198736
	7	0	13.354810	0.000000	3.299040	-0.580290	0.000000	-0.204882
	8	1	6.831660	0.000000	3.852680	-0.586730	0.000000	-0.343715
	9	1	0.889290	-0.000000	0.341970	0.359744	0.000000	0.135087
	10	1	21.845940	0.000000	3.009480	-0.579739	-0.000000	0.619850
	11	1	3.277340	-0.000000	0.865980	0.685420	0.000000	0.107004
	12	1	16.710650	-0.000000	1.601790	1.432870	0.000000	0.397281
	13	1	8.536820	-0.000000	1.793420	0.015653	-0.000000	2.163588
 Energy
	-129.916859160000
 PlusStress:  xx	yy	zz	yz	xz	xy
	0.47787	1.07615	6.18172	-0.00000	2.21337	-0.00000
 Feature	EFS_by	VASP
 Feature	from	VASP/ALS/HfMo/OUTCAR116/step=1
 Feature	MV_grade	3.059016
 Feature	PRAPs-ID	DFT_7058-DFT-step1
 Feature	elements	HfMo
 Feature	index	7058
 Feature	min_dist	2.374711
 Feature	mindist	2.659693
END_CFG

BEGIN_CFG
 Size
	28
 Supercell
	0.055619      6.182308      6.182313
	6.182318      0.055620      6.182309
	6.182314      6.182309      0.055623
 AtomData:  id type	cartes_x	cartes_y	cartes_z	fx	fy	fz
	1	0	9.698010	9.697990	9.697980	-0.605905	-0.605905	-0.605905
	2	0	2.723620	2.723630	2.723640	0.663120	0.663120	0.663120
	3	1	4.713160	6.185480	2.247090	-0.809464	-0.154112	1.535089
	4	1	7.653290	6.175930	2.256840	0.472878	-0.323731	1.389515
	5	1	4.759700	6.263640	10.154520	-0.368193	-0.001269	-1.052399
	6	1	7.700630	6.236940	10.171700	0.893092	0.134137	-1.468875
	7	1	6.175950	2.256840	7.653290	-0.323731	1.389514	0.472878
	8	1	6.185480	2.247090	4.713160	-0.154113	1.535089	-0.809462
	9	1	6.236950	10.171700	7.700620	0.134138	-1.468875	0.893091
	10	1	6.263650	10.154510	4.759700	-0.001269	-1.052399	-0.368193
	11	1	10.171710	7.700620	6.236950	-1.468877	0.893091	0.134138
	12	1	10.154530	4.759700	6.263640	-1.052400	-0.368192	-0.001270
	13	1	2.256840	7.653280	6.175940	1.389516	0.472877	-0.323730
	14	1	2.247090	4.713160	6.185480	1.535091	-0.809463	-0.154113
	15	1	6.200450	7.701970	4.013570	-0.359175	0.425786	-1.355823
	16	1	6.215810	4.725430	4.004020	-0.226027	-0.627100	-1.078506
	17	1	6.205470	7.682350	8.410150	0.252876	0.775722	1.088647
	18	1	6.229300	4.719600	8.415610	0.223965	-0.497264	1.210168
	19	1	4.004010	6.215800	4.725440	-1.078507	-0.226027	-0.627100
	20	1	4.013570	6.200450	7.701970	-1.355825	-0.359174	0.425786
	21	1	8.415620	6.229290	4.719600	1.210170	0.223964	-0.497264
	22	1	8.410150	6.205460	7.682350	1.088648	0.252876	0.775722
	23	1	4.719600	8.415610	6.229300	-0.497265	1.210168	0.223965
	24	1	7.682360	8.410140	6.205470	0.775723	1.088646	0.252876
	25	1	4.725440	4.004010	6.215810	-0.627100	-1.078506	-0.226027
	26	1	7.701980	4.013570	6.200450	0.425787	-1.355823	-0.359175
	27	1	0.007060	0.007060	0.007070	-0.199781	-0.199781	-0.199781
	28	1	6.201970	6.201960	6.201970	0.062629	0.062629	0.062629
 Energy
	-288.531038590000
 PlusStress:  xx	yy	zz	yz	xz	xy
	29.13997	29.13989	29.13990	0.01472	0.01471	0.01470
 Feature	EFS_by	VASP
 Feature	from	VASP/ALS/HfMo/OUTCAR117/step=1
 Feature	MV_grade	2.172064
 Feature	PRAPs-ID	DFT_4821-DFT-step1
 Feature	elements	HfMo
 Feature	index	4821
 Feature	min_dist	2.574018
 Feature	mindist	2.611929
END_CFG

BEGIN_CFG
 Size
	3
 Supercell
	2.516430      0.000000      0.000000
	-1.258220      2.179290      0.000000
	0.000000      0.000000      6.053840
 AtomData:  id type	cartes_x	cartes_y	cartes_z	fx	fy	fz
	1	0	-0.755090	1.307860	2.017950	-0.010369	0.017960	-0.000000
	2	0	0.503120	0.871440	4.035900	-0.010369	-0.017960	-0.000000
	3	0	1.510180	0.000000	0.000000	0.020738	-0.000000	0.000000
 Energy
	-14.327892120000
 PlusStress:  xx	yy	zz	yz	xz	xy
	50.12836	50.12825	52.46752	0.00000	-0.00000	-0.00012
 Feature	EFS_by	VASP
 Feature	from	VASP/ALS/HfMo/OUTCAR119/step=1
 Feature	MV_grade	6.033991
 Feature	PRAPs-ID	DFT_5204-DFT-step1
 Feature	elements	HfMo
 Feature	index	nan
 Feature	min_dist	nan
 Feature	mindist	2.417775
END_CFG

BEGIN_CFG
 Size
	13
 Supercell
	9.218286     -2.906938     -0.202433
	9.218284      2.906938     -0.202433
	8.017269      0.000000      4.602199
 AtomData:  id type	cartes_x	cartes_y	cartes_z	fx	fy	fz
	1	0	15.190840	1.382830	1.459960	0.526134	1.241395	-0.978036
	2	0	15.190840	-1.382830	1.459960	0.526135	-1.241395	-0.978036
	3	0	15.746970	0.000000	4.060500	-1.560658	-0.000000	-0.809325
	4	0	10.739850	-1.440270	2.513320	0.339491	-0.990362	0.250673
	5	0	12.240560	-0.000000	0.346170	0.128126	-0.000000	-0.549775
	6	0	10.739850	1.440270	2.513320	0.339490	0.990362	0.250673
	7	0	13.119670	0.000000	3.226590	0.574327	-0.000000	0.076705
	8	1	25.170850	0.000000	3.781720	-1.068758	-0.000000	0.292364
	9	1	1.131270	-0.000000	0.061060	0.670514	-0.000000	0.312911
	10	1	22.712900	0.000000	3.272540	-0.045338	-0.000000	0.667882
	11	1	3.448360	-0.000000	0.772600	-0.568856	-0.000000	0.741125
	12	1	17.669900	0.000000	2.294070	0.470684	-0.000000	-0.230493
	13	1	8.847930	-0.000000	1.520890	-0.331291	-0.000000	0.953332
 Energy
	-128.523264660000
 PlusStress:  xx	yy	zz	yz	xz	xy
	0.32069	-4.61901	-4.18809	0.00000	4.53801	0.00000
 Feature	EFS_by	VASP