BEGIN_CFG
 Size
	28
 Supercell
	0.000000      6.752296      6.752296
	6.752296      0.000000      6.752296
	6.752296      6.752296      0.000000
 AtomData:  id type	cartes_x	cartes_y	cartes_z	fx	fy	fz
	1	0	5.121638	6.752300	2.443212	-0.171729	0.000006	0.110930
	2	0	8.382953	6.752299	2.443214	0.171732	0.000006	0.110936
	3	0	5.121640	6.752299	11.061382	-0.171732	0.000005	-0.110921
	4	0	8.382951	6.752298	11.061381	0.171734	0.000005	-0.110937
	5	0	6.752299	2.443214	8.382953	0.000006	0.110936	0.171732
	6	0	6.752300	2.443212	5.121638	0.000006	0.110930	-0.171729
	7	0	6.752298	11.061381	8.382951	0.000005	-0.110937	0.171734
	8	0	6.752299	11.061382	5.121640	0.000005	-0.110921	-0.171732
	9	0	11.061381	8.382951	6.752298	-0.110937	0.171734	0.000005
	10	0	11.061382	5.121640	6.752299	-0.110921	-0.171732	0.000005
	11	0	2.443214	8.382953	6.752299	0.110936	0.171732	0.000006
	12	0	2.443212	5.121638	6.752300	0.110930	-0.171729	0.000006
	13	0	6.752294	8.382955	4.309084	-0.000005	0.171726	-0.110930
	14	0	6.752293	5.121637	4.309081	-0.000006	-0.171728	-0.110931
	15	0	6.752292	8.382955	9.195505	-0.000001	0.171729	0.110926
	16	0	6.752292	5.121638	9.195508	-0.000006	-0.171730	0.110927
	17	0	4.309081	6.752293	5.121637	-0.110931	-0.000006	-0.171728
	18	0	4.309084	6.752294	8.382955	-0.110930	-0.000005	0.171726
	19	0	9.195508	6.752292	5.121638	0.110927	-0.000006	-0.171730
	20	0	9.195505	6.752292	8.382955	0.110926	-0.000001	0.171729
	21	0	5.121638	9.195508	6.752292	-0.171730	0.110927	-0.000006
	22	0	8.382955	9.195505	6.752292	0.171729	0.110926	-0.000001
	23	0	5.121637	4.309081	6.752293	-0.171728	-0.110931	-0.000006
	24	0	8.382955	4.309084	6.752294	0.171726	-0.110930	-0.000005
	25	0	0.000002	0.000002	0.000002	-0.000009	-0.000009	-0.000009
	26	0	6.752294	6.752294	6.752294	0.000005	0.000005	0.000005
	27	1	10.128444	10.128444	10.128444	-0.000001	-0.000001	-0.000001
	28	1	3.376148	3.376148	3.376148	-0.000000	-0.000000	-0.000000
 Energy
	-256.966545928087
 PlusStress:  xx	yy	zz	yz	xz	xy
	18.16941	18.16941	18.16941	-0.00000	-0.00000	-0.00000
 Feature	EFS_by	mlip-rx
 Feature	MV_grade	0.959963
 Feature	PRAPs-ID	DFT_5168-AP
 Feature	elements	HfMo
 Feature	from	MLIP/Relax/HfMo/DFT_5168-RX/relaxation_OK
 Feature	index	1341
 Feature	min_dist	2.798964
 Feature	mindist	3.007589
END_CFG

BEGIN_CFG
 Size
	28
 Supercell
	0.000000      6.752302      6.752302
	6.752302      0.000000      6.752302
	6.752302      6.752302      0.000000
 AtomData:  id type	cartes_x	cartes_y	cartes_z	fx	fy	fz
	1	0	5.121641	6.752302	2.443214	-0.171703	-0.000000	0.110929
	2	0	8.382964	6.752302	2.443213	0.171704	-0.000000	0.110937
	3	0	5.121641	6.752302	11.061391	-0.171700	0.000001	-0.110929
	4	0	8.382964	6.752302	11.061391	0.171701	0.000000	-0.110928
	5	0	6.752302	2.443213	8.382964	-0.000000	0.110937	0.171704
	6	0	6.752302	2.443214	5.121641	-0.000000	0.110929	-0.171703
	7	0	6.752302	11.061391	8.382964	0.000000	-0.110928	0.171701
	8	0	6.752302	11.061391	5.121641	0.000001	-0.110929	-0.171700
	9	0	11.061391	8.382964	6.752302	-0.110928	0.171701	0.000000
	10	0	11.061391	5.121641	6.752302	-0.110929	-0.171700	0.000001
	11	0	2.443213	8.382964	6.752302	0.110937	0.171704	-0.000000
	12	0	2.443214	5.121641	6.752302	0.110929	-0.171703	-0.000000
	13	0	6.752303	8.382964	4.309089	0.000001	0.171701	-0.110927
	14	0	6.752303	5.121641	4.309089	0.000001	-0.171700	-0.110923
	15	0	6.752303	8.382964	9.195516	0.000000	0.171702	0.110934
	16	0	6.752303	5.121641	9.195516	0.000000	-0.171704	0.110928
	17	0	4.309089	6.752303	5.121641	-0.110923	0.000001	-0.171700
	18	0	4.309089	6.752303	8.382964	-0.110927	0.000001	0.171701
	19	0	9.195516	6.752303	5.121641	0.110928	0.000000	-0.171704
	20	0	9.195516	6.752303	8.382964	0.110934	0.000000	0.171702
	21	0	5.121641	9.195516	6.752303	-0.171704	0.110928	0.000000
	22	0	8.382964	9.195516	6.752303	0.171702	0.110934	0.000000
	23	0	5.121641	4.309089	6.752303	-0.171700	-0.110923	0.000001
	24	0	8.382964	4.309089	6.752303	0.171701	-0.110927	0.000001
	25	0	0.000001	0.000001	0.000001	-0.000012	-0.000012	-0.000012
	26	0	6.752303	6.752303	6.752303	-0.000008	-0.000008	-0.000008
	27	1	10.128454	10.128454	10.128454	-0.000003	-0.000003	-0.000003
	28	1	3.376152	3.376152	3.376152	-0.000003	-0.000003	-0.000003
 Energy
	-256.966602573370
 PlusStress:  xx	yy	zz	yz	xz	xy
	18.16833	18.16833	18.16833	0.00001	0.00001	0.00001
 Feature	EFS_by	mlip-rx
 Feature	MV_grade	0.959970
 Feature	PRAPs-ID	DFT_5169-AP
 Feature	elements	HfMo
 Feature	from	MLIP/Relax/HfMo/DFT_5169-RX/relaxation_OK
 Feature	index	1342
 Feature	min_dist	2.798966
 Feature	mindist	2.922612
END_CFG

BEGIN_CFG
 Size
	28
 Supercell
	0.000000      6.752302      6.752302
	6.752302      0.000000      6.752302
	6.752302      6.752302      0.000000
 AtomData:  id type	cartes_x	cartes_y	cartes_z	fx	fy	fz
	1	0	5.121637	6.752295	2.443209	-0.171702	-0.000005	0.110934
	2	0	8.382960	6.752295	2.443207	0.171702	-0.000005	0.110928
	3	0	5.121637	6.752295	11.061385	-0.171705	-0.000005	-0.110940
	4	0	8.382960	6.752295	11.061387	0.171705	-0.000005	-0.110934
	5	0	6.752295	2.443207	8.382960	-0.000005	0.110928	0.171702
	6	0	6.752295	2.443209	5.121637	-0.000005	0.110934	-0.171702
	7	0	6.752295	11.061387	8.382960	-0.000005	-0.110934	0.171705
	8	0	6.752295	11.061385	5.121637	-0.000005	-0.110940	-0.171705
	9	0	11.061387	8.382960	6.752295	-0.110934	0.171705	-0.000005
	10	0	11.061385	5.121637	6.752295	-0.110940	-0.171705	-0.000005
	11	0	2.443207	8.382960	6.752295	0.110928	0.171702	-0.000005
	12	0	2.443209	5.121637	6.752295	0.110934	-0.171702	-0.000005
	13	0	6.752301	8.382958	4.309085	0.000005	0.171708	-0.110931
	14	0	6.752301	5.121637	4.309087	0.000005	-0.171704	-0.110929
	15	0	6.752301	8.382959	9.195514	0.000005	0.171704	0.110928
	16	0	6.752301	5.121636	9.195512	0.000005	-0.171701	0.110926
	17	0	4.309087	6.752301	5.121637	-0.110929	0.000005	-0.171704
	18	0	4.309085	6.752301	8.382958	-0.110931	0.000005	0.171708
	19	0	9.195512	6.752301	5.121636	0.110926	0.000005	-0.171701
	20	0	9.195514	6.752301	8.382959	0.110928	0.000005	0.171704
	21	0	5.121636	9.195512	6.752301	-0.171701	0.110926	0.000005
	22	0	8.382959	9.195514	6.752301	0.171704	0.110928	0.000005
	23	0	5.121637	4.309087	6.752301	-0.171704	-0.110929	0.000005
	24	0	8.382958	4.309085	6.752301	0.171708	-0.110931	0.000005
	25	0	13.504599	13.504599	13.504599	0.000002	0.000002	0.000002
	26	0	6.752299	6.752299	6.752299	0.000007	0.000007	0.000007
	27	1	10.128449	10.128449	10.128449	0.000000	0.000000	0.000000
	28	1	3.376147	3.376147	3.376147	0.000000	0.000000	0.000000
 Energy
	-256.966601210570
 PlusStress:  xx	yy	zz	yz	xz	xy
	18.16836	18.16836	18.16836	0.00000	0.00000	0.00000
 Feature	EFS_by	mlip-rx
 Feature	MV_grade	0.959971
 Feature	PRAPs-ID	DFT_5170-AP
 Feature	elements	HfMo
 Feature	from	MLIP/Relax/HfMo/DFT_5170-RX/relaxation_OK
 Feature	index	1343
 Feature	min_dist	2.798965
 Feature	mindist	2.906273
END_CFG

BEGIN_CFG
 Size
	28
 Supercell
	0.000000      6.752314      6.752314
	6.752314      0.000000      6.752314
	6.752314      6.752314      0.000000
 AtomData:  id type	cartes_x	cartes_y	cartes_z	fx	fy	fz
	1	0	5.121638	6.752308	2.443205	-0.171641	-0.000002	0.110998
	2	0	8.382982	6.752308	2.443204	0.171635	-0.000002	0.110991
	3	0	5.121638	6.752308	11.061413	-0.171644	-0.000002	-0.111008
	4	0	8.382982	6.752308	11.061414	0.171637	-0.000002	-0.111001
	5	0	6.752308	2.443204	8.382982	-0.000002	0.110991	0.171635
	6	0	6.752308	2.443205	5.121638	-0.000002	0.110998	-0.171641
	7	0	6.752308	11.061414	8.382982	-0.000002	-0.111001	0.171637
	8	0	6.752308	11.061413	5.121638	-0.000002	-0.111008	-0.171644
	9	0	11.061414	8.382982	6.752308	-0.111001	0.171637	-0.000002
	10	0	11.061413	5.121638	6.752308	-0.111008	-0.171644	-0.000002
	11	0	2.443204	8.382982	6.752308	0.110991	0.171635	-0.000002
	12	0	2.443205	5.121638	6.752308	0.110998	-0.171641	-0.000002
	13	0	6.752311	8.382980	4.309100	0.000002	0.171645	-0.110998
	14	0	6.752311	5.121638	4.309101	0.000002	-0.171640	-0.110998
	15	0	6.752311	8.382981	9.195520	0.000002	0.171640	0.111001
	16	0	6.752311	5.121637	9.195519	0.000002	-0.171635	0.111001
	17	0	4.309101	6.752311	5.121638	-0.110998	0.000002	-0.171640
	18	0	4.309100	6.752311	8.382980	-0.110998	0.000002	0.171645
	19	0	9.195519	6.752311	5.121637	0.111001	0.000002	-0.171635
	20	0	9.195520	6.752311	8.382981	0.111001	0.000002	0.171640
	21	0	5.121637	9.195519	6.752311	-0.171635	0.111001	0.000002
	22	0	8.382981	9.195520	6.752311	0.171640	0.111001	0.000002
	23	0	5.121638	4.309101	6.752311	-0.171640	-0.110998	0.000002
	24	0	8.382980	4.309100	6.752311	0.171645	-0.110998	0.000002
	25	0	13.504622	13.504622	13.504622	0.000016	0.000016	0.000016
	26	0	6.752310	6.752310	6.752310	0.000002	0.000002	0.000002
	27	1	10.128466	10.128466	10.128466	0.000003	0.000003	0.000003
	28	1	3.376153	3.376153	3.376153	-0.000003	-0.000003	-0.000003
 Energy
	-256.966707840102
 PlusStress:  xx	yy	zz	yz	xz	xy
	18.16611	18.16611	18.16611	0.00000	0.00000	0.00000
 Feature	EFS_by	mlip-rx
 Feature	MV_grade	0.959978
 Feature	PRAPs-ID	DFT_5171-AP
 Feature	elements	HfMo
 Feature	from	MLIP/Relax/HfMo/DFT_5171-RX/relaxation_OK
 Feature	index	1344
 Feature	min_dist	2.798967
 Feature	mindist	2.897224
END_CFG

BEGIN_CFG
 Size
	28
 Supercell
	0.000000      6.752302      6.752302
	6.752302      0.000000      6.752302
	6.752302      6.752302      0.000000
 AtomData:  id type	cartes_x	cartes_y	cartes_z	fx	fy	fz
	1	0	5.121639	6.752299	2.443210	-0.171705	-0.000002	0.110947
	2	0	8.382962	6.752299	2.443209	0.171704	-0.000004	0.110946
	3	0	5.121639	6.752299	11.061389	-0.171706	-0.000004	-0.110943
	4	0	8.382962	6.752298	11.061390	0.171706	-0.000002	-0.110943
	5	0	6.752299	2.443209	8.382962	-0.000004	0.110946	0.171704
	6	0	6.752299	2.443210	5.121639	-0.000002	0.110947	-0.171705
	7	0	6.752298	11.061390	8.382962	-0.000002	-0.110943	0.171706
	8	0	6.752299	11.061389	5.121639	-0.000004	-0.110943	-0.171706
	9	0	11.061390	8.382962	6.752298	-0.110943	0.171706	-0.000002
	10	0	11.061389	5.121639	6.752299	-0.110943	-0.171706	-0.000004
	11	0	2.443209	8.382962	6.752299	0.110946	0.171704	-0.000004
	12	0	2.443210	5.121639	6.752299	0.110947	-0.171705	-0.000002
	13	0	6.752302	8.382961	4.309088	0.000004	0.171705	-0.110941
	14	0	6.752302	5.121639	4.309089	0.000002	-0.171705	-0.110939
	15	0	6.752302	8.382961	9.195514	0.000002	0.171708	0.110940
	16	0	6.752301	5.121639	9.195513	0.000003	-0.171707	0.110937
	17	0	4.309089	6.752302	5.121639	-0.110939	0.000002	-0.171705
	18	0	4.309088	6.752302	8.382961	-0.110941	0.000004	0.171705
	19	0	9.195513	6.752301	5.121639	0.110937	0.000003	-0.171707
	20	0	9.195514	6.752302	8.382961	0.110940	0.000002	0.171708
	21	0	5.121639	9.195513	6.752301	-0.171707	0.110937	0.000003
	22	0	8.382961	9.195514	6.752302	0.171708	0.110940	0.000002
	23	0	5.121639	4.309089	6.752302	-0.171705	-0.110939	0.000002
	24	0	8.382961	4.309088	6.752302	0.171705	-0.110941	0.000004
	25	0	13.504602	13.504602	13.504602	-0.000005	-0.000005	-0.000005
	26	0	6.752301	6.752301	6.752301	-0.000003	-0.000003	-0.000003
	27	1	10.128451	10.128451	10.128451	0.000001	0.000001	0.000001
	28	1	3.376149	3.376149	3.376149	0.000001	0.000001	0.000001
 Energy
	-256.966598547942
 PlusStress:  xx	yy	zz	yz	xz	xy
	18.16839	18.16839	18.16839	0.00000	0.00000	0.00000
 Feature	EFS_by	mlip-rx
 Feature	MV_grade	0.959970
 Feature	PRAPs-ID	DFT_5172-AP
 Feature	elements	HfMo
 Feature	from	MLIP/Relax/HfMo/DFT_5172-RX/relaxation_OK
 Feature	index	1345
 Feature	min_dist	2.798967
 Feature	mindist	2.901748
END_CFG

BEGIN_CFG
 Size
	28
 Supercell
	0.000000      6.752302      6.752302
	6.752302      0.000000      6.752302
	6.752302      6.752302      0.000000
 AtomData:  id type	cartes_x	cartes_y	cartes_z	fx	fy	fz
	1	0	5.121643	6.752307	2.443215	-0.171710	0.000002	0.110937
	2	0	8.382965	6.752306	2.443216	0.171706	0.000005	0.110946
	3	0	5.121643	6.752306	11.061396	-0.171707	0.000006	-0.110944
	4	0	8.382965	6.752306	11.061394	0.171706	0.000003	-0.110943
	5	0	6.752306	2.443216	8.382965	0.000005	0.110946	0.171706
	6	0	6.752307	2.443215	5.121643	0.000002	0.110937	-0.171710
	7	0	6.752306	11.061394	8.382965	0.000003	-0.110943	0.171706
	8	0	6.752306	11.061396	5.121643	0.000006	-0.110944	-0.171707
	9	0	11.061394	8.382965	6.752306	-0.110943	0.171706	0.000003
	10	0	11.061396	5.121643	6.752306	-0.110944	-0.171707	0.000006
	11	0	2.443216	8.382965	6.752306	0.110946	0.171706	0.000005
	12	0	2.443215	5.121643	6.752307	0.110937	-0.171710	0.000002
	13	0	6.752302	8.382966	4.309091	-0.000002	0.171707	-0.110934
	14	0	6.752302	5.121643	4.309090	-0.000004	-0.171707	-0.110942
	15	0	6.752302	8.382965	9.195515	-0.000004	0.171705	0.110940
	16	0	6.752302	5.121644	9.195516	-0.000005	-0.171709	0.110944
	17	0	4.309090	6.752302	5.121643	-0.110942	-0.000004	-0.171707
	18	0	4.309091	6.752302	8.382966	-0.110934	-0.000002	0.171707
	19	0	9.195516	6.752302	5.121644	0.110944	-0.000005	-0.171709
	20	0	9.195515	6.752302	8.382965	0.110940	-0.000004	0.171705
	21	0	5.121644	9.195516	6.752302	-0.171709	0.110944	-0.000005
	22	0	8.382965	9.195515	6.752302	0.171705	0.110940	-0.000004
	23	0	5.121643	4.309090	6.752302	-0.171707	-0.110942	-0.000004
	24	0	8.382966	4.309091	6.752302	0.171707	-0.110934	-0.000002
	25	0	0.000003	0.000003	0.000003	0.000001	0.000001	0.000001
	26	0	6.752303	6.752303	6.752303	0.000002	0.000002	0.000002
	27	1	10.128455	10.128455	10.128455	0.000001	0.000001	0.000001
	28	1	3.376153	3.376153	3.376153	0.000001	0.000001	0.000001
 Energy
	-256.966597850579
 PlusStress:  xx	yy	zz	yz	xz	xy
	18.16842	18.16842	18.16842	0.00001	0.00001	0.00001
 Feature	EFS_by	mlip-rx
 Feature	MV_grade	0.959970
 Feature	PRAPs-ID	DFT_5173-AP
 Feature	elements	HfMo
 Feature	from	MLIP/Relax/HfMo/DFT_5173-RX/relaxation_OK
 Feature	index	1346
 Feature	min_dist	2.798966
 Feature	mindist	2.903391
END_CFG

BEGIN_CFG
 Size
	28
 Supercell
	0.000000      6.752303      6.752303
	6.752303      0.000000      6.752303
	6.752303      6.752303      0.000000
 AtomData:  id type	cartes_x	cartes_y	cartes_z	fx	fy	fz
	1	0	5.121639	6.752300	2.443211	-0.171704	0.000000	0.110930
	2	0	8.382962	6.752300	2.443211	0.171701	0.000002	0.110930
	3	0	5.121639	6.752301	11.061390	-0.171703	-0.000001	-0.110934
	4	0	8.382962	6.752301	11.061390	0.171701	0.000002	-0.110933
	5	0	6.752300	2.443211	8.382962	0.000002	0.110930	0.171701
	6	0	6.752300	2.443211	5.121639	0.000000	0.110930	-0.171704
	7	0	6.752301	11.061390	8.382962	0.000002	-0.110933	0.171701
	8	0	6.752301	11.061390	5.121639	-0.000001	-0.110934	-0.171703
	9	0	11.061390	8.382962	6.752301	-0.110933	0.171701	0.000002
	10	0	11.061390	5.121639	6.752301	-0.110934	-0.171703	-0.000001
	11	0	2.443211	8.382962	6.752300	0.110930	0.171701	0.000002
	12	0	2.443211	5.121639	6.752300	0.110930	-0.171704	0.000000
	13	0	6.752300	8.382962	4.309087	-0.000000	0.171702	-0.110933
	14	0	6.752300	5.121639	4.309087	0.000002	-0.171703	-0.110934
	15	0	6.752301	8.382962	9.195513	-0.000003	0.171701	0.110939
	16	0	6.752301	5.121639	9.195514	-0.000001	-0.171703	0.110932
	17	0	4.309087	6.752300	5.121639	-0.110934	0.000002	-0.171703
	18	0	4.309087	6.752300	8.382962	-0.110933	-0.000000	0.171702
	19	0	9.195514	6.752301	5.121639	0.110932	-0.000001	-0.171703
	20	0	9.195513	6.752301	8.382962	0.110939	-0.000003	0.171701
	21	0	5.121639	9.195514	6.752301	-0.171703	0.110932	-0.000001
	22	0	8.382962	9.195513	6.752301	0.171701	0.110939	-0.000003
	23	0	5.121639	4.309087	6.752300	-0.171703	-0.110934	0.000002
	24	0	8.382962	4.309087	6.752300	0.171702	-0.110933	-0.000000
	25	0	13.504603	13.504603	13.504603	0.000007	0.000007	0.000007
	26	0	6.752300	6.752300	6.752300	0.000004	0.000004	0.000004
	27	1	10.128452	10.128452	10.128452	0.000000	0.000000	0.000000
	28	1	3.376149	3.376149	3.376149	-0.000001	-0.000001	-0.000001
 Energy
	-256.966608686910
 PlusStress:  xx	yy	zz	yz	xz	xy
	18.16823	18.16823	18.16823	0.00001	0.00001	0.00001
 Feature	EFS_by	mlip-rx
 Feature	MV_grade	0.959971
 Feature	PRAPs-ID	DFT_5174-AP
 Feature	elements	HfMo
 Feature	from	MLIP/Relax/HfMo/DFT_5174-RX/relaxation_OK
 Feature	index	1347
 Feature	min_dist	2.798967
 Feature	mindist	2.904862
END_CFG

BEGIN_CFG
 Size
	28
 Supercell
	-0.000000      6.752303      6.752303
	6.752303     -0.000000      6.752303
	6.752303      6.752303     -0.000000
 AtomData:  id type	cartes_x	cartes_y	cartes_z	fx	fy	fz
	1	0	5.121641	6.752302	2.443213	-0.171702	-0.000005	0.110931
	2	0	8.382964	6.752301	2.443212	0.171704	-0.000002	0.110931
	3	0	5.121641	6.752301	11.061391	-0.171701	-0.000001	-0.110936
	4	0	8.382964	6.752301	11.061392	0.171707	-0.000003	-0.110931
	5	0	6.752301	2.443212	8.382964	-0.000002	0.110931	0.171704
	6	0	6.752302	2.443213	5.121641	-0.000005	0.110931	-0.171702
	7	0	6.752301	11.061392	8.382964	-0.000003	-0.110931	0.171707
	8	0	6.752301	11.061391	5.121641	-0.000001	-0.110936	-0.171701
	9	0	11.061392	8.382964	6.752301	-0.110931	0.171707	-0.000003
	10	0	11.061391	5.121641	6.752301	-0.110936	-0.171701	-0.000001
	11	0	2.443212	8.382964	6.752301	0.110931	0.171704	-0.000002
	12	0	2.443213	5.121641	6.752302	0.110931	-0.171702	-0.000005
	13	0	6.752304	8.382963	4.309090	0.000003	0.171707	-0.110941
	14	0	6.752304	5.121641	4.309091	0.000002	-0.171701	-0.110943
	15	0	6.752304	8.382964	9.195516	0.000001	0.171703	0.110943
	16	0	6.752304	5.121641	9.195516	0.000000	-0.171704	0.110933
	17	0	4.309091	6.752304	5.121641	-0.110943	0.000002	-0.171701
	18	0	4.309090	6.752304	8.382963	-0.110941	0.000003	0.171707
	19	0	9.195516	6.752304	5.121641	0.110933	0.000000	-0.171704
	20	0	9.195516	6.752304	8.382964	0.110943	0.000001	0.171703
	21	0	5.121641	9.195516	6.752304	-0.171704	0.110933	0.000000
	22	0	8.382964	9.195516	6.752304	0.171703	0.110943	0.000001
	23	0	5.121641	4.309091	6.752304	-0.171701	-0.110943	0.000002
	24	0	8.382963	4.309090	6.752304	0.171707	-0.110941	0.000003
	25	0	13.504605	13.504605	13.504605	0.000000	0.000000	0.000000
	26	0	6.752303	6.752303	6.752303	0.000002	0.000002	0.000002
	27	1	10.128454	10.128454	10.128454	0.000000	0.000000	0.000000
	28	1	3.376151	3.376151	3.376151	0.000000	0.000000	0.000000
 Energy
	-256.966607506221
 PlusStress:  xx	yy	zz	yz	xz	xy
	18.16825	18.16825	18.16825	0.00001	0.00001	0.00001
 Feature	EFS_by	mlip-rx
 Feature	MV_grade	0.959971
 Feature	PRAPs-ID	DFT_5175-AP
 Feature	elements	HfMo
 Feature	from	MLIP/Relax/HfMo/DFT_5175-RX/relaxation_OK
 Feature	index	1348
 Feature	min_dist	2.798967
 Feature	mindist	2.906303
END_CFG

BEGIN_CFG
 Size
	28
 Supercell
	0.000000      6.752302      6.752302
	6.752302      0.000000      6.752302
	6.752302      6.752302      0.000000
 AtomData:  id type	cartes_x	cartes_y	cartes_z	fx	fy	fz
	1	0	5.121645	6.752307	2.443216	-0.171707	0.000002	0.110945
	2	0	8.382967	6.752307	2.443217	0.171704	0.000002	0.110942
	3	0	5.121645	6.752307	11.061397	-0.171708	0.000001	-0.110946
	4	0	8.382967	6.752307	11.061396	0.171707	0.000001	-0.110946
	5	0	6.752307	2.443217	8.382967	0.000002	0.110942	0.171704
	6	0	6.752307	2.443216	5.121645	0.000002	0.110945	-0.171707
	7	0	6.752307	11.061396	8.382967	0.000001	-0.110946	0.171707
	8	0	6.752307	11.061397	5.121645	0.000001	-0.110946	-0.171708
	9	0	11.061396	8.382967	6.752307	-0.110946	0.171707	0.000001
	10	0	11.061397	5.121645	6.752307	-0.110946	-0.171708	0.000001
	11	0	2.443217	8.382967	6.752307	0.110942	0.171704	0.000002
	12	0	2.443216	5.121645	6.752307	0.110945	-0.171707	0.000002
	13	0	6.752305	8.382968	4.309093	-0.000002	0.171704	-0.110936
	14	0	6.752305	5.121645	4.309093	-0.000002	-0.171710	-0.110944
	15	0	6.752305	8.382967	9.195518	-0.000002	0.171705	0.110935
	16	0	6.752305	5.121645	9.195518	-0.000001	-0.171705	0.110944
	17	0	4.309093	6.752305	5.121645	-0.110944	-0.000002	-0.171710
	18	0	4.309093	6.752305	8.382968	-0.110936	-0.000002	0.171704
	19	0	9.195518	6.752305	5.121645	0.110944	-0.000001	-0.171705
	20	0	9.195518	6.752305	8.382967	0.110935	-0.000002	0.171705
	21	0	5.121645	9.195518	6.752305	-0.171705	0.110944	-0.000001
	22	0	8.382967	9.195518	6.752305	0.171705	0.110935	-0.000002
	23	0	5.121645	4.309093	6.752305	-0.171710	-0.110944	-0.000002
	24	0	8.382968	4.309093	6.752305	0.171704	-0.110936	-0.000002
	25	0	0.000004	0.000004	0.000004	0.000008	0.000008	0.000008
	26	0	6.752305	6.752305	6.752305	0.000010	0.000010	0.000010
	27	1	10.128457	10.128457	10.128457	-0.000000	-0.000000	-0.000000
	28	1	3.376155	3.376155	3.376155	0.000000	0.000000	0.000000
 Energy
	-256.966598032779
 PlusStress:  xx	yy	zz	yz	xz	xy
	18.16841	18.16841	18.16841	0.00000	0.00000	0.00000
 Feature	EFS_by	mlip-rx
 Feature	MV_grade	0.959970
 Feature	PRAPs-ID	DFT_5176-AP
 Feature	elements	HfMo
 Feature	from	MLIP/Relax/HfMo/DFT_5176-RX/relaxation_OK
 Feature	index	1349
 Feature	min_dist	2.798967
 Feature	mindist	2.908848
END_CFG

BEGIN_CFG
 Size
	28
 Supercell
	0.000000      6.752303      6.752303
	6.752303      0.000000      6.752303
	6.752303      6.752303      0.000000
 AtomData:  id type	cartes_x	cartes_y	cartes_z	fx	fy	fz
	1	0	5.121643	6.752304	2.443215	-0.171702	-0.000001	0.110930
	2	0	8.382966	6.752304	2.443215	0.171700	-0.000001	0.110926
	3	0	5.121643	6.752304	11.061393	-0.171703	-0.000001	-0.110927
	4	0	8.382966	6.752304	11.061393	0.171701	-0.000001	-0.110923
	5	0	6.752304	2.443215	8.382966	-0.000001	0.110926	0.171700
	6	0	6.752304	2.443215	5.121643	-0.000001	0.110930	-0.171702
	7	0	6.752304	11.061393	8.382966	-0.000001	-0.110923	0.171701
	8	0	6.752304	11.061393	5.121643	-0.000001	-0.110927	-0.171703
	9	0	11.061393	8.382966	6.752304	-0.110923	0.171701	-0.000001
	10	0	11.061393	5.121643	6.752304	-0.110927	-0.171703	-0.000001
	11	0	2.443215	8.382966	6.752304	0.110926	0.171700	-0.000001
	12	0	2.443215	5.121643	6.752304	0.110930	-0.171702	-0.000001
	13	0	6.752305	8.382966	4.309091	0.000000	0.171699	-0.110932
	14	0	6.752305	5.121643	4.309091	0.000000	-0.171701	-0.110927
	15	0	6.752305	8.382966	9.195518	0.000000	0.171702	0.110936
	16	0	6.752305	5.121643	9.195518	0.000000	-0.171704	0.110931
	17	0	4.309091	6.752305	5.121643	-0.110927	0.000000	-0.171701
	18	0	4.309091	6.752305	8.382966	-0.110932	0.000000	0.171699
	19	0	9.195518	6.752305	5.121643	0.110931	0.000000	-0.171704
	20	0	9.195518	6.752305	8.382966	0.110936	0.000000	0.171702
	21	0	5.121643	9.195518	6.752305	-0.171704	0.110931	0.000000
	22	0	8.382966	9.195518	6.752305	0.171702	0.110936	0.000000
	23	0	5.121643	4.309091	6.752305	-0.171701	-0.110927	0.000000
	24	0	8.382966	4.309091	6.752305	0.171699	-0.110932	0.000000
	25	0	0.000001	0.000001	0.000001	0.000003	0.000003	0.000003
	26	0	6.752305	6.752305	6.752305	-0.000008	-0.000008	-0.000008
	27	1	10.128456	10.128456	10.128456	-0.000000	-0.000000	-0.000000
	28	1	3.376153	3.376153	3.376153	-0.000000	-0.000000	-0.000000
 Energy
	-256.966609685294
 PlusStress:  xx	yy	zz	yz	xz	xy
	18.16822	18.16822	18.16822	0.00000	0.00000	0.00000
 Feature	EFS_by	mlip-rx
 Feature	MV_grade	0.959971
 Feature	PRAPs-ID	DFT_5177-AP
 Feature	elements	HfMo
 Feature	from	MLIP/Relax/HfMo/DFT_5177-RX/relaxation_OK
 Feature	index	1350
 Feature	min_dist	2.798967
 Feature	mindist	2.912257
END_CFG

BEGIN_CFG
 Size
	28
 Supercell
	0.000000      6.752303      6.752303
	6.752303      0.000000      6.752303
	6.752303      6.752303      0.000000
 AtomData:  id type	cartes_x	cartes_y	cartes_z	fx	fy	fz
	1	0	5.121640	6.752300	2.443211	-0.171706	-0.000001	0.110936
	2	0	8.382962	6.752300	2.443210	0.171705	-0.000001	0.110934
	3	0	5.121640	6.752300	11.061389	-0.171707	-0.000003	-0.110929
	4	0	8.382963	6.752300	11.061390	0.171698	-0.000004	-0.110931
	5	0	6.752300	2.443210	8.382962	-0.000001	0.110934	0.171705
	6	0	6.752300	2.443211	5.121640	-0.000001	0.110936	-0.171706
	7	0	6.752300	11.061390	8.382963	-0.000004	-0.110931	0.171698
	8	0	6.752300	11.061389	5.121640	-0.000003	-0.110929	-0.171707
	9	0	11.061390	8.382963	6.752300	-0.110931	0.171698	-0.000004
	10	0	11.061389	5.121640	6.752300	-0.110929	-0.171707	-0.000003
	11	0	2.443210	8.382962	6.752300	0.110934	0.171705	-0.000001
	12	0	2.443211	5.121640	6.752300	0.110936	-0.171706	-0.000001
	13	0	6.752302	8.382962	4.309088	0.000001	0.171702	-0.110939
	14	0	6.752302	5.121640	4.309088	0.000001	-0.171706	-0.110930
	15	0	6.752302	8.382962	9.195515	0.000003	0.171704	0.110933
	16	0	6.752302	5.121639	9.195514	0.000003	-0.171704	0.110937
	17	0	4.309088	6.752302	5.121640	-0.110930	0.000001	-0.171706
	18	0	4.309088	6.752302	8.382962	-0.110939	0.000001	0.171702
	19	0	9.195514	6.752302	5.121639	0.110937	0.000003	-0.171704
	20	0	9.195515	6.752302	8.382962	0.110933	0.000003	0.171704
	21	0	5.121639	9.195514	6.752302	-0.171704	0.110937	0.000003
	22	0	8.382962	9.195515	6.752302	0.171704	0.110933	0.000003
	23	0	5.121640	4.309088	6.752302	-0.171706	-0.110930	0.000001
	24	0	8.382962	4.309088	6.752302	0.171702	-0.110939	0.000001
	25	0	13.504603	13.504603	13.504603	0.000002	0.000002	0.000002
	26	0	6.752301	6.752301	6.752301	0.000004	0.000004	0.000004
	27	1	10.128452	10.128452	10.128452	0.000002	0.000002	0.000002
	28	1	3.376150	3.376150	3.376150	-0.000003	-0.000003	-0.000003
 Energy
	-256.966607656706
 PlusStress:  xx	yy	zz	yz	xz	xy
	18.16825	18.16825	18.16825	0.00000	0.00000	0.00000
 Feature	EFS_by	mlip-rx
 Feature	MV_grade	0.959971
 Feature	PRAPs-ID	DFT_5178-AP
 Feature	elements	HfMo
 Feature	from	MLIP/Relax/HfMo/DFT_5178-RX/relaxation_OK
 Feature	index	1351
 Feature	min_dist	2.798966
 Feature	mindist	2.911384
END_CFG

BEGIN_CFG
 Size
	28
 Supercell
	0.000000      6.752303      6.752303
	6.752303      0.000000      6.752303
	6.752303      6.752303      0.000000
 AtomData:  id type	cartes_x	cartes_y	cartes_z	fx	fy	fz
	1	0	5.121640	6.752300	2.443211	-0.171706	-0.000001	0.110936
	2	0	8.382962	6.752300	2.443210	0.171705	-0.000001	0.110934
	3	0	5.121640	6.752300	11.061389	-0.171707	-0.000003	-0.110929
	4	0	8.382963	6.752300	11.061390	0.171698	-0.000004	-0.110931
	5	0	6.752300	2.443210	8.382962	-0.000001	0.110934	0.171705
	6	0	6.752300	2.443211	5.121640	-0.000001	0.110936	-0.171706
	7	0	6.752300	11.061390	8.382963	-0.000004	-0.110931	0.171698
	8	0	6.752300	11.061389	5.121640	-0.000003	-0.110929	-0.171707
	9	0	11.061390	8.382963	6.752300	-0.110931	0.171698	-0.000004
	10	0	11.061389	5.121640	6.752300	-0.110929	-0.171707	-0.000003
	11	0	2.443210	8.382962	6.752300	0.110934	0.171705	-0.000001
	12	0	2.443211	5.121640	6.752300	0.110936	-0.171706	-0.000001
	13	0	6.752302	8.382962	4.309088	0.000001	0.171702	-0.110939
	14	0	6.752302	5.121640	4.309088	0.000001	-0.171706	-0.110930
	15	0	6.752302	8.382962	9.195515	0.000003	0.171704	0.110933
	16	0	6.752302	5.121639	9.195514	0.000003	-0.171704	0.110937
	17	0	4.309088	6.752302	5.121640	-0.110930	0.000001	-0.171706
	18	0	4.309088	6.752302	8.382962	-0.110939	0.000001	0.171702
	19	0	9.195514	6.752302	5.121639	0.110937	0.000003	-0.171704
	20	0	9.195515	6.752302	8.382962	0.110933	0.000003	0.171704
	21	0	5.121639	9.195514	6.752302	-0.171704	0.110937	0.000003
	22	0	8.382962	9.195515	6.752302	0.171704	0.110933	0.000003
	23	0	5.121640	4.309088	6.752302	-0.171706	-0.110930	0.000001
	24	0	8.382962	4.309088	6.752302	0.171702	-0.110939	0.000001
	25	0	13.504603	13.504603	13.504603	0.000002	0.000002	0.000002
	26	0	6.752301	6.752301	6.752301	0.000004	0.000004	0.000004
	27	1	10.128452	10.128452	10.128452	0.000002	0.000002	0.000002
	28	1	3.376150	3.376150	3.376150	-0.000003	-0.000003	-0.000003
 Energy
	-256.966607656706
 PlusStress:  xx	yy	zz	yz	xz	xy
	18.16825	18.16825	18.16825	0.00000	0.00000	0.00000
 Feature	EFS_by	mlip-rx
 Feature	MV_grade	0.959971
 Feature	PRAPs-ID	DFT_5179-AP
 Feature	elements	HfMo
 Feature	from	MLIP/Relax/HfMo/DFT_5179-RX/relaxation_OK
 Feature	index	1352
 Feature	min_dist	2.798966
 Feature	mindist	2.911384
END_CFG

BEGIN_CFG
 Size
	28
 Supercell
	0.000000      6.752301      6.752301
	6.752301      0.000000      6.752301
	6.752301      6.752301      0.000000
 AtomData:  id type	cartes_x	cartes_y	cartes_z	fx	fy	fz
	1	0	5.121643	6.752306	2.443215	-0.171707	0.000003	0.110945
	2	0	8.382965	6.752306	2.443216	0.171708	0.000003	0.110952
	3	0	5.121644	6.752306	11.061395	-0.171712	0.000003	-0.110945
	4	0	8.382964	6.752306	11.061394	0.171711	0.000004	-0.110946
	5	0	6.752306	2.443216	8.382965	0.000003	0.110952	0.171708
	6	0	6.752306	2.443215	5.121643	0.000003	0.110945	-0.171707
	7	0	6.752306	11.061394	8.382964	0.000004	-0.110946	0.171711
	8	0	6.752306	11.061395	5.121644	0.000003	-0.110945	-0.171712
	9	0	11.061394	8.382964	6.752306	-0.110946	0.171711	0.000004
	10	0	11.061395	5.121644	6.752306	-0.110945	-0.171712	0.000003
	11	0	2.443216	8.382965	6.752306	0.110952	0.171708	0.000003
	12	0	2.443215	5.121643	6.752306	0.110945	-0.171707	0.000003
	13	0	6.752302	8.382966	4.309092	-0.000002	0.171707	-0.110940
	14	0	6.752302	5.121643	4.309091	-0.000000	-0.171708	-0.110948
	15	0	6.752302	8.382966	9.195515	-0.000000	0.171704	0.110936
	16	0	6.752303	5.121644	9.195516	-0.000004	-0.171714	0.110942
	17	0	4.309091	6.752302	5.121643	-0.110948	-0.000000	-0.171708
	18	0	4.309092	6.752302	8.382966	-0.110940	-0.000002	0.171707
	19	0	9.195516	6.752303	5.121644	0.110942	-0.000004	-0.171714
	20	0	9.195515	6.752302	8.382966	0.110936	-0.000000	0.171704
	21	0	5.121644	9.195516	6.752303	-0.171714	0.110942	-0.000004
	22	0	8.382966	9.195515	6.752302	0.171704	0.110936	-0.000000
	23	0	5.121643	4.309091	6.752302	-0.171708	-0.110948	-0.000000
	24	0	8.382966	4.309092	6.752302	0.171707	-0.110940	-0.000002
	25	0	0.000004	0.000004	0.000004	0.000001	0.000001	0.000001
	26	0	6.752303	6.752303	6.752303	0.000009	0.000009	0.000009
	27	1	10.128455	10.128455	10.128455	-0.000001	-0.000001	-0.000001
	28	1	3.376154	3.376154	3.376154	-0.000002	-0.000002	-0.000002
 Energy
	-256.966589557774
 PlusStress:  xx	yy	zz	yz	xz	xy
	18.16855	18.16855	18.16855	0.00000	0.00000	0.00000
 Feature	EFS_by	mlip-rx
 Feature	MV_grade	0.959968
 Feature	PRAPs-ID	DFT_5180-AP
 Feature	elements	HfMo
 Feature	from	MLIP/Relax/HfMo/DFT_5180-RX/relaxation_OK
 Feature	index	1353
 Feature	min_dist	2.798966
 Feature	mindist	2.995417
END_CFG

BEGIN_CFG
 Size
	28
 Supercell
	0.000000      6.752300      6.752300
	6.752300      0.000000      6.752300
	6.752300      6.752300      0.000000
 AtomData:  id type	cartes_x	cartes_y	cartes_z	fx	fy	fz
	1	0	5.121637	6.752299	2.443210	-0.171706	-0.000002	0.110941
	2	0	8.382959	6.752299	2.443210	0.171710	-0.000002	0.110944
	3	0	5.121637	6.752299	11.061387	-0.171704	-0.000001	-0.110941