BEGIN_CFG
 Size
	1
 Supercell
	-1.600470      1.600470      1.600470
	1.600470     -1.600470      1.600470
	1.600470      1.600470     -1.600470
 AtomData:  id type	cartes_x	cartes_y	cartes_z	fx	fy	fz
	1	1	0.000000	0.000000	0.000000	0.000000	0.000000	0.000000
 Energy
	-10.831300000000
 PlusStress:  xx	yy	zz	yz	xz	xy
	-0.84818	-0.84818	-0.84818	0.00000	0.00000	0.00000
 Feature	PRAPs-ID	DFT_8417
 Feature	elements	HfMo
 Feature	from	aflow.org/JSON/HfMo/895b9ed1a055fcc1/relax-step=1
 Feature	mindist	2.772095
 Feature	index	8417
END_CFG

BEGIN_CFG
 Size
	1
 Supercell
	-1.583520      1.583520      1.583520
	1.583520     -1.583520      1.583520
	1.583520      1.583520     -1.583520
 AtomData:  id type	cartes_x	cartes_y	cartes_z	fx	fy	fz
	1	1	0.000000	0.000000	0.000000	0.000000	0.000000	0.000000
 Energy
	-10.845600000000
 PlusStress:  xx	yy	zz	yz	xz	xy
	-0.03955	-0.03955	-0.03955	0.00000	0.00000	0.00000
 Feature	PRAPs-ID	DFT_8419
 Feature	elements	HfMo
 Feature	from	aflow.org/JSON/HfMo/895b9ed1a055fcc1/relax-step=3
 Feature	mindist	2.742737
 Feature	index	8419
END_CFG

BEGIN_CFG
 Size
	1
 Supercell
	-1.582820      1.582820      1.582820
	1.582820     -1.582820      1.582820
	1.582820      1.582820     -1.582820
 AtomData:  id type	cartes_x	cartes_y	cartes_z	fx	fy	fz
	1	1	0.000000	0.000000	0.000000	0.000000	0.000000	0.000000
 Energy
	-10.845600000000
 PlusStress:  xx	yy	zz	yz	xz	xy
	0.00228	0.00228	0.00228	0.00000	0.00000	0.00000
 Feature	PRAPs-ID	DFT_8420
 Feature	elements	HfMo
 Feature	from	aflow.org/JSON/HfMo/895b9ed1a055fcc1/relax-step=4
 Feature	mindist	2.741525
 Feature	index	8420
END_CFG

BEGIN_CFG
 Size
	1
 Supercell
	-1.582820      1.582820      1.582820
	1.582820     -1.582820      1.582820
	1.582820      1.582820     -1.582820
 AtomData:  id type	cartes_x	cartes_y	cartes_z	fx	fy	fz
	1	1	0.000000	0.000000	0.000000	0.000000	0.000000	0.000000
 Energy
	-10.842900000000
 PlusStress:  xx	yy	zz	yz	xz	xy
	-0.00525	-0.00525	-0.00525	0.00000	0.00000	0.00000
 Feature	PRAPs-ID	DFT_8421
 Feature	elements	HfMo
 Feature	from	aflow.org/JSON/HfMo/895b9ed1a055fcc1/relax-step=5
 Feature	mindist	2.741525
 Feature	index	8421
END_CFG

BEGIN_CFG
 Size
	1
 Supercell
	-1.582420      1.582420      1.582420
	1.582420     -1.582420      1.582420
	1.582420      1.582420     -1.582420
 AtomData:  id type	cartes_x	cartes_y	cartes_z	fx	fy	fz
	1	1	0.000000	0.000000	0.000000	0.000000	0.000000	0.000000
 Energy
	-10.842800000000
 PlusStress:  xx	yy	zz	yz	xz	xy
	0.01385	0.01385	0.01385	0.00000	0.00000	0.00000
 Feature	PRAPs-ID	DFT_8422
 Feature	elements	HfMo
 Feature	from	aflow.org/JSON/HfMo/895b9ed1a055fcc1/relax-step=6
 Feature	mindist	2.740832
 Feature	index	8422
END_CFG

BEGIN_CFG
 Size
	1
 Supercell
	-1.582710      1.582710      1.582710
	1.582710     -1.582710      1.582710
	1.582710      1.582710     -1.582710
 AtomData:  id type	cartes_x	cartes_y	cartes_z	fx	fy	fz
	1	1	0.000000	0.000000	0.000000	0.000000	0.000000	0.000000
 Energy
	-10.842900000000
 PlusStress:  xx	yy	zz	yz	xz	xy
	0.00000	0.00000	0.00000	0.00000	0.00000	0.00000
 Feature	PRAPs-ID	DFT_8423
 Feature	elements	HfMo
 Feature	from	aflow.org/JSON/HfMo/895b9ed1a055fcc1/relax-step=7
 Feature	mindist	2.741334
 Feature	index	8423
END_CFG

BEGIN_CFG
 Size
	1
 Supercell
	-1.600470      1.600470      1.600470
	1.600470     -1.600470      1.600470
	1.600470      1.600470     -1.600470
 AtomData:  id type	cartes_x	cartes_y	cartes_z	fx	fy	fz
	1	1	0.000000	0.000000	0.000000	0.000000	0.000000	0.000000
 Energy
	-10.831300000000
 PlusStress:  xx	yy	zz	yz	xz	xy
	-0.84828	-0.84828	-0.84828	0.00000	0.00000	0.00000
 Feature	PRAPs-ID	DFT_8837
 Feature	elements	HfMo
 Feature	from	aflow.org/JSON/HfMo/ef97dce106db0196/relax-step=1
 Feature	mindist	2.772095
 Feature	index	8837
END_CFG

BEGIN_CFG
 Size
	1
 Supercell
	-1.583500      1.583500      1.583500
	1.583500     -1.583500      1.583500
	1.583500      1.583500     -1.583500
 AtomData:  id type	cartes_x	cartes_y	cartes_z	fx	fy	fz
	1	1	0.000000	0.000000	0.000000	0.000000	0.000000	0.000000
 Energy
	-10.845600000000
 PlusStress:  xx	yy	zz	yz	xz	xy
	-0.04074	-0.04074	-0.04074	0.00000	0.00000	0.00000
 Feature	PRAPs-ID	DFT_8839
 Feature	elements	HfMo
 Feature	from	aflow.org/JSON/HfMo/ef97dce106db0196/relax-step=3
 Feature	mindist	2.742702
 Feature	index	8839
END_CFG

BEGIN_CFG
 Size
	1
 Supercell
	-1.582790      1.582790      1.582790
	1.582790     -1.582790      1.582790
	1.582790      1.582790     -1.582790
 AtomData:  id type	cartes_x	cartes_y	cartes_z	fx	fy	fz
	1	1	0.000000	0.000000	0.000000	0.000000	0.000000	0.000000
 Energy
	-10.845600000000
 PlusStress:  xx	yy	zz	yz	xz	xy
	0.00386	0.00386	0.00386	0.00000	0.00000	0.00000
 Feature	PRAPs-ID	DFT_8840
 Feature	elements	HfMo
 Feature	from	aflow.org/JSON/HfMo/ef97dce106db0196/relax-step=4
 Feature	mindist	2.741473
 Feature	index	8840
END_CFG

BEGIN_CFG
 Size
	1
 Supercell
	-1.582790      1.582790      1.582790
	1.582790     -1.582790      1.582790
	1.582790      1.582790     -1.582790
 AtomData:  id type	cartes_x	cartes_y	cartes_z	fx	fy	fz
	1	1	0.000000	0.000000	0.000000	0.000000	0.000000	0.000000
 Energy
	-10.842800000000
 PlusStress:  xx	yy	zz	yz	xz	xy
	-0.00366	-0.00366	-0.00366	0.00000	0.00000	0.00000
 Feature	PRAPs-ID	DFT_8841
 Feature	elements	HfMo
 Feature	from	aflow.org/JSON/HfMo/ef97dce106db0196/relax-step=5
 Feature	mindist	2.741473
 Feature	index	8841
END_CFG

BEGIN_CFG
 Size
	1
 Supercell
	-1.582510      1.582510      1.582510
	1.582510     -1.582510      1.582510
	1.582510      1.582510     -1.582510
 AtomData:  id type	cartes_x	cartes_y	cartes_z	fx	fy	fz
	1	1	0.000000	0.000000	0.000000	0.000000	0.000000	0.000000
 Energy
	-10.842800000000
 PlusStress:  xx	yy	zz	yz	xz	xy
	0.00970	0.00970	0.00970	0.00000	0.00000	0.00000
 Feature	PRAPs-ID	DFT_8842
 Feature	elements	HfMo
 Feature	from	aflow.org/JSON/HfMo/ef97dce106db0196/relax-step=6
 Feature	mindist	2.740988
 Feature	index	8842
END_CFG

BEGIN_CFG
 Size
	1
 Supercell
	-1.582710      1.582710      1.582710
	1.582710     -1.582710      1.582710
	1.582710      1.582710     -1.582710
 AtomData:  id type	cartes_x	cartes_y	cartes_z	fx	fy	fz
	1	1	0.000000	0.000000	0.000000	0.000000	0.000000	0.000000
 Energy
	-10.842800000000
 PlusStress:  xx	yy	zz	yz	xz	xy
	0.00099	0.00099	0.00099	0.00000	0.00000	0.00000
 Feature	PRAPs-ID	DFT_8843
 Feature	elements	HfMo
 Feature	from	aflow.org/JSON/HfMo/ef97dce106db0196/relax-step=7
 Feature	mindist	2.741334
 Feature	index	8843
END_CFG

BEGIN_CFG
 Size
	8
 Supercell
	0.000000      4.379040      4.379040
	4.379040      0.000000      4.379040
	4.379040      4.379040      0.000000
 AtomData:  id type	cartes_x	cartes_y	cartes_z	fx	fy	fz
	1	0	2.189520	2.189520	0.000000	0.000000	0.000000	0.000000
	2	0	2.189520	0.000000	2.189520	0.000000	0.000000	0.000000
	3	0	4.379040	2.189520	2.189520	0.000000	0.000000	0.000000
	4	0	0.000000	2.189520	2.189520	0.000000	0.000000	0.000000
	5	0	2.189520	4.379040	2.189520	0.000000	0.000000	0.000000
	6	0	2.189520	2.189520	4.379040	0.000000	0.000000	0.000000
	7	0	4.379040	4.379040	4.379040	0.000000	0.000000	0.000000
	8	1	0.000000	0.000000	0.000000	0.000000	0.000000	0.000000
 Energy
	-79.270900000000
 PlusStress:  xx	yy	zz	yz	xz	xy
	2.33127	2.33127	2.33127	0.00000	0.00000	0.00000
 Feature	PRAPs-ID	DFT_2106
 Feature	elements	HfMo
 Feature	from	aflow.org/JSON/HfMo/4dc225c3400de543/relax-step=2
 Feature	mindist	3.096449
 Feature	index	2106
END_CFG

BEGIN_CFG
 Size
	6
 Supercell
	3.504630      0.000000      0.000000
	1.752310      2.492500      4.833980
	0.000000     -5.068300      4.874750
 AtomData:  id type	cartes_x	cartes_y	cartes_z	fx	fy	fz
	1	0	0.000000	0.279240	-0.110550	0.000000	0.054499	-0.426872
	2	0	3.504630	0.117930	4.709280	0.000000	0.186498	0.058680
	3	0	1.752310	-2.251170	5.105330	0.000000	-0.088567	0.252205
	4	0	1.752310	0.721100	2.379220	0.000000	0.140645	-0.089705
	5	0	3.504630	-2.120220	2.425800	0.000000	-0.025127	0.222848
	6	1	3.504630	-1.912360	7.332150	0.000000	-0.267948	-0.017156
 Energy
	-60.332400000000
 PlusStress:  xx	yy	zz	yz	xz	xy
	-2.89893	-1.76694	-0.09059	0.00000	-0.09861	0.00000
 Feature	PRAPs-ID	DFT_515
 Feature	elements	HfMo
 Feature	from	aflow.org/JSON/HfMo/5600961b2f7b4e6d/relax-step=21
 Feature	mindist	2.853789
 Feature	index	515
END_CFG

BEGIN_CFG
 Size
	6
 Supercell
	3.428430      0.000000      0.000000
	1.714210      2.465580      4.828290
	0.000000     -5.058900      4.892380
 AtomData:  id type	cartes_x	cartes_y	cartes_z	fx	fy	fz
	1	0	0.000000	0.303220	-0.129190	0.000000	-0.017691	-0.400726
	2	0	3.428430	0.119870	4.717470	0.000000	0.296183	-0.026330
	3	0	1.714210	-2.232320	5.128700	0.000000	-0.223262	0.161905
	4	0	1.714210	0.705660	2.367430	0.000000	-0.020432	-0.057727
	5	0	3.428430	-2.119630	2.441370	0.000000	-0.092197	0.250989
	6	1	3.428430	-1.984720	7.340400	0.000000	0.057399	0.071889
 Energy
	-60.386900000000
 PlusStress:  xx	yy	zz	yz	xz	xy
	0.29983	0.23736	2.18702	0.00000	-0.15616	0.00000
 Feature	PRAPs-ID	DFT_516
 Feature	elements	HfMo
 Feature	from	aflow.org/JSON/HfMo/5600961b2f7b4e6d/relax-step=22
 Feature	mindist	2.809170
 Feature	index	516
END_CFG

BEGIN_CFG
 Size
	6
 Supercell
	3.415040      0.000000      0.000000
	1.707520      2.458980      4.860140
	0.000000     -5.063190      4.933780
 AtomData:  id type	cartes_x	cartes_y	cartes_z	fx	fy	fz
	1	0	0.000000	0.308640	-0.142420	0.000000	-0.004998	-0.381184
	2	0	3.415040	0.123810	4.752340	0.000000	0.286981	-0.048862
	3	0	1.707520	-2.236740	5.174860	0.000000	-0.191903	0.164049
	4	0	1.707520	0.701120	2.380110	0.000000	-0.041193	-0.054103
	5	0	3.415040	-2.124190	2.468310	0.000000	-0.139498	0.254874
	6	1	3.415040	-2.005280	7.396980	0.000000	0.090611	0.065226
 Energy
	-60.409400000000
 PlusStress:  xx	yy	zz	yz	xz	xy
	0.27409	0.10650	1.52158	0.00000	-0.17620	0.00000
 Feature	PRAPs-ID	DFT_517
 Feature	elements	HfMo
 Feature	from	aflow.org/JSON/HfMo/5600961b2f7b4e6d/relax-step=23
 Feature	mindist	2.811942
 Feature	index	517
END_CFG

BEGIN_CFG
 Size
	6
 Supercell
	3.374880      0.000000      0.000000
	1.687440      2.439150      4.955700
	0.000000     -5.076070      5.057950
 AtomData:  id type	cartes_x	cartes_y	cartes_z	fx	fy	fz
	1	0	0.000000	0.325020	-0.182920	0.000000	0.014388	-0.349401
	2	0	3.374880	0.135600	4.856930	0.000000	0.261106	-0.089836
	3	0	1.687440	-2.250060	5.313750	0.000000	-0.069266	0.150857
	4	0	1.687440	0.687550	2.417920	0.000000	-0.128996	-0.012828
	5	0	3.374880	-2.137950	2.549590	0.000000	-0.291129	0.242734
	6	1	3.374880	-2.066950	7.566920	0.000000	0.213897	0.058474
 Energy
	-60.444600000000
 PlusStress:  xx	yy	zz	yz	xz	xy
	0.55441	-0.20297	-0.30169	0.00000	-0.25035	0.00000
 Feature	PRAPs-ID	DFT_518
 Feature	elements	HfMo
 Feature	from	aflow.org/JSON/HfMo/5600961b2f7b4e6d/relax-step=24
 Feature	mindist	2.820950
 Feature	index	518
END_CFG

BEGIN_CFG
 Size
	6
 Supercell
	3.365100      0.000000      0.000000
	1.682550      2.434330      4.978970
	0.000000     -5.079210      5.088190
 AtomData:  id type	cartes_x	cartes_y	cartes_z	fx	fy	fz
	1	0	0.000000	0.329010	-0.192830	0.000000	0.021279	-0.337256
	2	0	3.365100	0.138470	4.882400	0.000000	0.249883	-0.094768
	3	0	1.682550	-2.253310	5.347600	0.000000	-0.041033	0.144513
	4	0	1.682550	0.684240	2.427120	0.000000	-0.153887	-0.002991
	5	0	3.365100	-2.141310	2.569410	0.000000	-0.323607	0.237673
	6	1	3.365100	-2.081970	7.608310	0.000000	0.247365	0.052830
 Energy
	-60.445700000000
 PlusStress:  xx	yy	zz	yz	xz	xy
	0.60377	-0.30624	-0.89972	0.00000	-0.25797	0.00000
 Feature	PRAPs-ID	DFT_519
 Feature	elements	HfMo
 Feature	from	aflow.org/JSON/HfMo/5600961b2f7b4e6d/relax-step=25
 Feature	mindist	2.823321
 Feature	index	519
END_CFG

BEGIN_CFG
 Size
	6
 Supercell
	3.364930      0.000000      0.000000
	1.682470      2.416750      4.979350
	0.000000     -5.081860      5.107800
 AtomData:  id type	cartes_x	cartes_y	cartes_z	fx	fy	fz
	1	0	0.000000	0.334370	-0.216010	0.000000	0.062911	-0.221957
	2	0	3.364930	0.142910	4.886090	0.000000	0.164231	-0.052788
	3	0	1.682470	-2.262810	5.371040	0.000000	0.052630	0.068800
	4	0	1.682470	0.670160	2.425340	0.000000	-0.235387	-0.032021
	5	0	3.364930	-2.156590	2.592390	0.000000	-0.253068	0.197730
	6	1	3.364930	-2.099660	7.626520	0.000000	0.208683	0.040236
 Energy
	-60.465400000000
 PlusStress:  xx	yy	zz	yz	xz	xy
	0.68949	0.03874	-0.52977	0.00000	-0.18423	0.00000
 Feature	PRAPs-ID	DFT_520
 Feature	elements	HfMo
 Feature	from	aflow.org/JSON/HfMo/5600961b2f7b4e6d/relax-step=26
 Feature	mindist	2.814674
 Feature	index	520
END_CFG

BEGIN_CFG
 Size
	6
 Supercell
	3.364490      0.000000      0.000000
	1.682250      2.369740      4.980340
	0.000000     -5.088940      5.160230
 AtomData:  id type	cartes_x	cartes_y	cartes_z	fx	fy	fz
	1	0	0.000000	0.349030	-0.278330	0.000000	0.182642	0.154442
	2	0	3.364490	0.154560	4.895620	0.000000	-0.086295	0.095437
	3	0	1.682250	-2.288400	5.433850	0.000000	0.283200	-0.157795
	4	0	1.682250	0.632650	2.420680	0.000000	-0.477286	-0.122815
	5	0	3.364490	-2.197510	2.654200	0.000000	-0.017138	0.089491
	6	1	3.364490	-2.146980	7.675270	0.000000	0.114877	-0.058759
 Energy
	-60.484100000000
 PlusStress:  xx	yy	zz	yz	xz	xy
	0.92552	0.99101	0.30772	0.00000	0.01262	0.00000
 Feature	PRAPs-ID	DFT_521
 Feature	elements	HfMo
 Feature	from	aflow.org/JSON/HfMo/5600961b2f7b4e6d/relax-step=27
 Feature	mindist	2.768137
 Feature	index	521
END_CFG

BEGIN_CFG
 Size
	6
 Supercell
	3.380680      0.000000      0.000000
	1.690340      2.364640      4.989100
	0.000000     -5.117940      5.188310
 AtomData:  id type	cartes_x	cartes_y	cartes_z	fx	fy	fz
	1	0	0.000000	0.362260	-0.297690	0.000000	0.150268	0.144711
	2	0	3.380680	0.157490	4.910300	0.000000	-0.115094	0.127254
	3	0	1.690340	-2.300800	5.461560	0.000000	0.267110	-0.099380
	4	0	1.690340	0.606780	2.419110	0.000000	-0.348671	-0.092178
	5	0	3.380680	-2.225040	2.684840	0.000000	0.023760	0.020256
	6	1	3.380680	-2.172060	7.704460	0.000000	0.022628	-0.100663
 Energy
	-60.496700000000
 PlusStress:  xx	yy	zz	yz	xz	xy
	-0.25605	-0.11486	-0.47301	0.00000	0.01516	0.00000
 Feature	PRAPs-ID	DFT_522
 Feature	elements	HfMo
 Feature	from	aflow.org/JSON/HfMo/5600961b2f7b4e6d/relax-step=28
 Feature	mindist	2.763505
 Feature	index	522
END_CFG

BEGIN_CFG
 Size
	6
 Supercell
	3.384840      0.000000      0.000000
	1.692420      2.363320      4.991350
	0.000000     -5.125400      5.195540
 AtomData:  id type	cartes_x	cartes_y	cartes_z	fx	fy	fz
	1	0	0.000000	0.365660	-0.302680	0.000000	0.141198	0.144622
	2	0	3.384840	0.158240	4.914070	0.000000	-0.115300	0.132278
	3	0	1.692420	-2.303990	5.468690	0.000000	0.257799	-0.084586
	4	0	1.692420	0.600120	2.418700	0.000000	-0.316645	-0.086283
	5	0	3.384840	-2.232120	2.692730	0.000000	0.037286	0.001435
	6	1	3.384840	-2.178520	7.711970	0.000000	-0.004338	-0.107467
 Energy
	-60.497300000000
 PlusStress:  xx	yy	zz	yz	xz	xy
	-0.57911	-0.40634	-0.69510	0.00000	0.02800	0.00000
 Feature	PRAPs-ID	DFT_523
 Feature	elements	HfMo
 Feature	from	aflow.org/JSON/HfMo/5600961b2f7b4e6d/relax-step=29
 Feature	mindist	2.762317
 Feature	index	523
END_CFG

BEGIN_CFG
 Size
	6
 Supercell
	3.380650      0.000000      0.000000
	1.690330      2.356690      4.976130
	0.000000     -5.125010      5.186330
 AtomData:  id type	cartes_x	cartes_y	cartes_z	fx	fy	fz
	1	0	0.000000	0.374870	-0.304580	0.000000	0.080371	0.106312
	2	0	3.380650	0.155970	4.905610	0.000000	-0.046537	0.139738
	3	0	1.690330	-2.294580	5.455880	0.000000	0.159218	-0.055201
	4	0	1.690330	0.578120	2.406060	0.000000	-0.228334	-0.058434
	5	0	3.380650	-2.236740	2.694620	0.000000	0.069171	-0.043665
	6	1	3.380650	-2.182900	7.690440	0.000000	-0.033890	-0.088750
 Energy
	-60.508900000000
 PlusStress:  xx	yy	zz	yz	xz	xy
	-0.14806	-0.09632	-0.19423	0.00000	0.02627	0.00000
 Feature	PRAPs-ID	DFT_524
 Feature	elements	HfMo
 Feature	from	aflow.org/JSON/HfMo/5600961b2f7b4e6d/relax-step=30
 Feature	mindist	2.756684
 Feature	index	524
END_CFG

BEGIN_CFG
 Size
	6
 Supercell
	3.375010      0.000000      0.000000
	1.687510      2.347740      4.955630
	0.000000     -5.124490      5.173930
 AtomData:  id type	cartes_x	cartes_y	cartes_z	fx	fy	fz
	1	0	0.000000	0.387270	-0.307140	0.000000	-0.000817	0.064284
	2	0	3.375010	0.152900	4.894170	0.000000	0.046915	0.151715
	3	0	1.687510	-2.281920	5.438600	0.000000	0.026903	-0.021823
	4	0	1.687510	0.548510	2.389070	0.000000	-0.117905	-0.021485
	5	0	3.375010	-2.242970	2.697130	0.000000	0.116530	-0.106148
	6	1	3.375010	-2.188800	7.661450	0.000000	-0.071627	-0.066542
 Energy
	-60.515400000000
 PlusStress:  xx	yy	zz	yz	xz	xy
	0.39779	0.29893	0.46026	0.00000	0.01898	0.00000
 Feature	PRAPs-ID	DFT_525
 Feature	elements	HfMo
 Feature	from	aflow.org/JSON/HfMo/5600961b2f7b4e6d/relax-step=31
 Feature	mindist	2.749131
 Feature	index	525
END_CFG

BEGIN_CFG
 Size
	6
 Supercell
	3.382150      0.000000      0.000000
	1.691070      2.349740      4.963700
	0.000000     -5.134320      5.184950
 AtomData:  id type	cartes_x	cartes_y	cartes_z	fx	fy	fz
	1	0	0.000000	0.393010	-0.306410	0.000000	-0.021071	-0.052622
	2	0	3.382150	0.154630	4.911810	0.000000	0.089348	0.101603
	3	0	1.691070	-2.279700	5.447990	0.000000	-0.047172	0.046143
	4	0	1.691070	0.533060	2.389120	0.000000	0.006705	0.019931
	5	0	3.382150	-2.244910	2.702100	0.000000	0.047680	-0.085718
	6	1	3.382150	-2.197730	7.671430	0.000000	-0.075491	-0.029337
 Energy
	-60.518600000000
 PlusStress:  xx	yy	zz	yz	xz	xy
	-0.30296	-0.41031	-0.31091	0.00000	-0.00875	0.00000
 Feature	PRAPs-ID	DFT_526
 Feature	elements	HfMo
 Feature	from	aflow.org/JSON/HfMo/5600961b2f7b4e6d/relax-step=32
 Feature	mindist	2.758570
 Feature	index	526
END_CFG

BEGIN_CFG
 Size
	6
 Supercell
	3.381300      0.000000      0.000000
	1.690650      2.349500      4.962740
	0.000000     -5.133150      5.183640
 AtomData:  id type	cartes_x	cartes_y	cartes_z	fx	fy	fz
	1	0	0.000000	0.392330	-0.306490	0.000000	-0.019416	-0.040675
	2	0	3.381300	0.154420	4.909710	0.000000	0.079002	0.113648
	3	0	1.690650	-2.279970	5.446870	0.000000	-0.031073	0.037245
	4	0	1.690650	0.534900	2.389110	0.000000	-0.012782	0.018286
	5	0	3.381300	-2.244680	2.701510	0.000000	0.054624	-0.087984
	6	1	3.381300	-2.196670	7.670240	0.000000	-0.070355	-0.040520
 Energy
	-60.518600000000
 PlusStress:  xx	yy	zz	yz	xz	xy
	-0.40607	-0.51891	-0.39971	0.00000	0.01589	0.00000
 Feature	PRAPs-ID	DFT_527
 Feature	elements	HfMo
 Feature	from	aflow.org/JSON/HfMo/5600961b2f7b4e6d/relax-step=33
 Feature	mindist	2.757457
 Feature	index	527
END_CFG

BEGIN_CFG
 Size
	6
 Supercell
	3.380560      0.000000      0.000000
	1.690280      2.346210      4.960320
	0.000000     -5.128650      5.182380
 AtomData:  id type	cartes_x	cartes_y	cartes_z	fx	fy	fz
	1	0	0.000000	0.394910	-0.306470	0.000000	-0.025698	-0.083669
	2	0	3.380560	0.157520	4.916520	0.000000	0.093670	0.075987
	3	0	1.690280	-2.274040	5.445160	0.000000	-0.070109	0.045960
	4	0	1.690280	0.523090	2.385740	0.000000	0.040907	0.035001
	5	0	3.380560	-2.239740	2.698190	0.000000	0.019298	-0.057112
	6	1	3.380560	-2.199330	7.663410	0.000000	-0.058069	-0.016167
 Energy
	-60.520500000000
 PlusStress:  xx	yy	zz	yz	xz	xy
	-0.14121	-0.23324	-0.19357	0.00000	0.00159	0.00000
 Feature	PRAPs-ID	DFT_528
 Feature	elements	HfMo
 Feature	from	aflow.org/JSON/HfMo/5600961b2f7b4e6d/relax-step=34
 Feature	mindist	2.759278
 Feature	index	528
END_CFG

BEGIN_CFG
 Size
	6
 Supercell
	3.380170      0.000000      0.000000
	1.690090      2.344450      4.959020
	0.000000     -5.126240      5.181700
 AtomData:  id type	cartes_x	cartes_y	cartes_z	fx	fy	fz
	1	0	0.000000	0.396300	-0.306450	0.000000	-0.026416	-0.103340
	2	0	3.380170	0.159180	4.920160	0.000000	0.100986	0.062342
	3	0	1.690090	-2.270870	5.444240	0.000000	-0.089870	0.046597
	4	0	1.690090	0.516780	2.383930	0.000000	0.062700	0.041960
	5	0	3.380170	-2.237100	2.696410	0.000000	0.001675	-0.039451
	6	1	3.380170	-2.200750	7.659760	0.000000	-0.049075	-0.008108
 Energy
	-60.521000000000
 PlusStress:  xx	yy	zz	yz	xz	xy
	-0.16011	-0.28059	-0.24967	0.00000	-0.01823	0.00000
 Feature	PRAPs-ID	DFT_529
 Feature	elements	HfMo
 Feature	from	aflow.org/JSON/HfMo/5600961b2f7b4e6d/relax-step=35
 Feature	mindist	2.760252
 Feature	index	529
END_CFG

BEGIN_CFG
 Size
	6
 Supercell
	3.377780      0.000000      0.000000
	1.688890      2.341330      4.953420
	0.000000     -5.120500      5.176360
 AtomData:  id type	cartes_x	cartes_y	cartes_z	fx	fy	fz
	1	0	0.000000	0.394900	-0.308940	0.000000	-0.013393	-0.051112
	2	0	3.377780	0.161070	4.915750	0.000000	0.075144	0.065279
	3	0	1.688890	-2.271330	5.439670	0.000000	-0.059342	0.007815
	4	0	1.688890	0.518550	2.382600	0.000000	0.015357	0.024211
	5	0	3.377780	-2.234820	2.692740	0.000000	0.024119	-0.028685
	6	1	3.377780	-2.199700	7.651610	0.000000	-0.041886	-0.017508
 Energy
	-60.522000000000
 PlusStress:  xx	yy	zz	yz	xz	xy
	0.23865	0.21653	0.23391	0.00000	0.00869	0.00000
 Feature	PRAPs-ID	DFT_530
 Feature	elements	HfMo
 Feature	from	aflow.org/JSON/HfMo/5600961b2f7b4e6d/relax-step=36
 Feature	mindist	2.755354
 Feature	index	530
END_CFG

BEGIN_CFG
 Size
	6
 Supercell
	3.377750      0.000000      0.000000
	1.688870      2.341290      4.953340
	0.000000     -5.120420      5.176290
 AtomData:  id type	cartes_x	cartes_y	cartes_z	fx	fy	fz
	1	0	0.000000	0.394880	-0.308970	0.000000	-0.012695	-0.048724
	2	0	3.377750	0.161100	4.915690	0.000000	0.073247	0.064095
	3	0	1.688870	-2.271340	5.439610	0.000000	-0.055561	0.007303
	4	0	1.688870	0.518580	2.382580	0.000000	0.013185	0.023019
	5	0	3.377750	-2.234780	2.692690	0.000000	0.025208	-0.028389
	6	1	3.377750	-2.199680	7.651490	0.000000	-0.043384	-0.017303
 Energy
	-60.522000000000
 PlusStress:  xx	yy	zz	yz	xz	xy
	0.19676	0.18491	0.19834	0.00000	0.00632	0.00000
 Feature	PRAPs-ID	DFT_531
 Feature	elements	HfMo
 Feature	from	aflow.org/JSON/HfMo/5600961b2f7b4e6d/relax-step=37
 Feature	mindist	2.755294
 Feature	index	531
END_CFG

BEGIN_CFG
 Size
	6
 Supercell
	3.377750      0.000000      0.000000
	1.688870      2.341290      4.953340
	0.000000     -5.120420      5.176290
 AtomData:  id type	cartes_x	cartes_y	cartes_z	fx	fy	fz
	1	0	3.377750	-4.725540	4.867310	0.000000	-0.014750	-0.050653
	2	0	3.377750	0.161100	4.915690	0.000000	0.077283	0.064211
	3	0	1.688870	-2.271340	5.439610	0.000000	-0.056025	0.009748
	4	0	1.688870	0.518580	2.382580	0.000000	0.013683	0.022579
	5	0	3.377750	-2.234780	2.692690	0.000000	0.025411	-0.030382
	6	1	3.377750	-2.199680	7.651490	0.000000	-0.045601	-0.015503
 Energy
	-60.515800000000
 PlusStress:  xx	yy	zz	yz	xz	xy
	0.30107	0.00474	0.13355	0.00000	-0.04030	0.00000
 Feature	PRAPs-ID	DFT_532
 Feature	elements	HfMo
 Feature	from	aflow.org/JSON/HfMo/5600961b2f7b4e6d/relax-step=38
 Feature	mindist	2.755286
 Feature	index	532
END_CFG

BEGIN_CFG
 Size
	6
 Supercell
	3.385920      0.000000      0.000000
	1.692960      2.339780      4.957920
	0.000000     -5.122290      5.183510
 AtomData:  id type	cartes_x	cartes_y	cartes_z	fx	fy	fz
	1	0	3.385920	-4.728010	4.871630	0.000000	0.003638	-0.049123
	2	0	3.385920	0.163250	4.924020	0.000000	0.040979	0.051113
	3	0	1.692960	-2.275880	5.446670	0.000000	-0.021762	0.009511
	4	0	1.692960	0.518490	2.386070	0.000000	0.007296	0.017916
	5	0	3.385920	-2.234510	2.694840	0.000000	-0.000830	-0.007514
	6	1	3.385920	-2.204430	7.659690	0.000000	-0.029321	-0.021902
 Energy
	-60.516900000000
 PlusStress:  xx	yy	zz	yz	xz	xy
	-0.20856	-0.26328	-0.23156	0.00000	-0.01745	0.00000
 Feature	PRAPs-ID	DFT_533
 Feature	elements	HfMo
 Feature	from	aflow.org/JSON/HfMo/5600961b2f7b4e6d/relax-step=39
 Feature	mindist	2.758294
 Feature	index	533
END_CFG

BEGIN_CFG
 Size
	6
 Supercell
	3.385340      0.000000      0.000000
	1.692670      2.339890      4.957590
	0.000000     -5.122160      5.182990
 AtomData:  id type	cartes_x	cartes_y	cartes_z	fx	fy	fz
	1	0	3.385340	-4.727830	4.871320	0.000000	0.004111	-0.054531
	2	0	3.385340	0.163090	4.923430	0.000000	0.046717	0.051531
	3	0	1.692670	-2.275560	5.446160	0.000000	-0.024875	0.015611
	4	0	1.692670	0.518500	2.385820	0.000000	0.013276	0.018834
	5	0	3.385340	-2.234530	2.694690	0.000000	-0.001018	-0.009446
	6	1	3.385340	-2.204090	7.659100	0.000000	-0.038212	-0.021999
 Energy
	-60.516900000000
 PlusStress:  xx	yy	zz	yz	xz	xy
	-0.18393	-0.18155	-0.17363	0.00000	-0.01268	0.00000
 Feature	PRAPs-ID	DFT_534
 Feature	elements	HfMo
 Feature	from	aflow.org/JSON/HfMo/5600961b2f7b4e6d/relax-step=40
 Feature	mindist	2.758080
 Feature	index	534
END_CFG

BEGIN_CFG
 Size
	6
 Supercell
	3.385750      0.000000      0.000000
	1.692880      2.335790      4.954180
	0.000000     -5.117430      5.181430
 AtomData:  id type	cartes_x	cartes_y	cartes_z	fx	fy	fz
	1	0	3.385750	-4.723720	4.866280	0.000000	0.015364	-0.009545
	2	0	3.385750	0.165550	4.924410	0.000000	0.017969	0.042117
	3	0	1.692880	-2.276800	5.444590	0.000000	0.007577	-0.019738
	4	0	1.692880	0.518150	2.385700	0.000000	-0.028784	0.002110
	5	0	3.385750	-2.231940	2.692570	0.000000	0.006207	0.007674
	6	1	3.385750	-2.206260	7.654080	0.000000	-0.018333	-0.022618
 Energy
	-60.517600000000
 PlusStress:  xx	yy	zz	yz	xz	xy
	-0.01504	0.04195	0.05936	0.00000	0.00554	0.00000
 Feature	PRAPs-ID	DFT_535
 Feature	elements	HfMo
 Feature	from	aflow.org/JSON/HfMo/5600961b2f7b4e6d/relax-step=41
 Feature	mindist	2.755361
 Feature	index	535
END_CFG

BEGIN_CFG
 Size
	6
 Supercell
	3.385840      0.000000      0.000000
	1.692920      2.334970      4.953500
	0.000000     -5.116480      5.181120
 AtomData:  id type	cartes_x	cartes_y	cartes_z	fx	fy	fz
	1	0	3.385840	-4.722900	4.865270	0.000000	0.020796	-0.006941
	2	0	3.385840	0.166040	4.924610	0.000000	0.010358	0.040215
	3	0	1.692920	-2.277050	5.444280	0.000000	0.014298	-0.017169
	4	0	1.692920	0.518080	2.385680	0.000000	-0.029555	-0.002815
	5	0	3.385840	-2.231420	2.692140	0.000000	-0.000259	0.012654
	6	1	3.385840	-2.206700	7.653070	0.000000	-0.015637	-0.025943
 Energy
	-60.517700000000
 PlusStress:  xx	yy	zz	yz	xz	xy
	-0.02453	0.03165	0.06884	0.00000	-0.01029	0.00000
 Feature	PRAPs-ID	DFT_536
 Feature	elements	HfMo
 Feature	from	aflow.org/JSON/HfMo/5600961b2f7b4e6d/relax-step=42
 Feature	mindist	2.754828
 Feature	index	536
END_CFG

BEGIN_CFG
 Size
	6
 Supercell
	1.884480      1.726090     -1.773060
	-5.404990      1.648490     -1.609290
	-1.885150      5.045990      5.179050
 AtomData:  id type	cartes_x	cartes_y	cartes_z	fx	fy	fz
	1	0	0.285810	0.014280	-0.278600	-0.033512	0.421100	0.080528
	2	0	0.295410	3.610220	-0.059600	-0.152146	-0.359288	-0.138460
	3	0	-1.802110	5.064210	1.734240	0.000000	0.000000	0.000000
	4	0	-2.014470	1.472220	-1.650980	0.152146	0.359288	0.138460
	5	0	-3.889360	3.342070	0.341070	0.033512	-0.421100	-0.080528
	6	1	-5.446840	5.025420	1.816120	0.000000	0.000000	0.000000
 Energy
	-60.298400000000
 PlusStress:  xx	yy	zz	yz	xz	xy
	0.34059	-0.69553	0.20100	0.25604	0.04148	-0.14517
 Feature	PRAPs-ID	DFT_3692
 Feature	elements	HfMo
 Feature	from	aflow.org/JSON/HfMo/03fe08893163c11b/relax-step=12
 Feature	mindist	2.726747
 Feature	index	3692
END_CFG

BEGIN_CFG
 Size
	6
 Supercell
	1.924880      1.700740     -1.767260
	-5.433130      1.573530     -1.560210
	-1.898050      4.985940      5.205040
 AtomData:  id type	cartes_x	cartes_y	cartes_z	fx	fy	fz
	1	0	0.288980	0.056860	-0.275460	0.136915	0.198848	-0.104715
	2	0	0.312380	3.539820	-0.062700	0.066519	-0.367918	0.026244
	3	0	-1.793160	4.982300	1.771780	0.000000	0.000000	0.000000
	4	0	-2.000640	1.438840	-1.598770	-0.066519	0.367918	-0.026244
	5	0	-3.902130	3.221050	0.381240	-0.136915	-0.198848	0.104715
	6	1	-5.472160	4.918690	1.875310	0.000000	0.000000	0.000000
 Energy
	-60.332900000000
 PlusStress:  xx	yy	zz	yz	xz	xy
	0.08209	0.44046	0.95038	-0.42151	-0.65437	0.52097
 Feature	PRAPs-ID	DFT_3693
 Feature	elements	HfMo
 Feature	from	aflow.org/JSON/HfMo/03fe08893163c11b/relax-step=13
 Feature	mindist	2.753038
 Feature	index	3693
END_CFG

BEGIN_CFG
 Size
	6
 Supercell
	1.928120      1.700880     -1.782130
	-5.464200      1.580620     -1.590500
	-1.899720      4.957170      5.222430
 AtomData:  id type	cartes_x	cartes_y	cartes_z	fx	fy	fz
	1	0	0.296800	0.087120	-0.281650	0.125831	0.010462	-0.222912
	2	0	0.308950	3.503760	-0.084000	0.071264	-0.260452	0.147124
	3	0	-1.802470	4.965570	1.763370	0.000000	0.000000	0.000000
	4	0	-2.014160	1.470220	-1.611700	-0.071264	0.260452	-0.147124
	5	0	-3.930140	3.185980	0.368090	-0.125831	-0.010462	0.222912
	6	1	-5.498630	4.905440	1.859180	0.000000	0.000000	0.000000
 Energy
	-60.364400000000
 PlusStress:  xx	yy	zz	yz	xz	xy
	-1.09846	-0.79793	-0.37625	-0.27342	-0.45198	0.16023
 Feature	PRAPs-ID	DFT_3694
 Feature	elements	HfMo
 Feature	from	aflow.org/JSON/HfMo/03fe08893163c11b/relax-step=14
 Feature	mindist	2.764065
 Feature	index	3694
END_CFG

BEGIN_CFG
 Size
	6
 Supercell
	1.929460      1.700930     -1.788260
	-5.477020      1.583550     -1.603000
	-1.900410      4.945300      5.229600
 AtomData:  id type	cartes_x	cartes_y	cartes_z	fx	fy	fz
	1	0	0.300030	0.099590	-0.284230	0.117548	-0.070722	-0.269440
	2	0	0.307540	3.488900	-0.092780	0.070957	-0.216739	0.189542
	3	0	-1.806310	4.958670	1.759890	0.000000	0.000000	0.000000
	4	0	-2.019740	1.483140	-1.617030	-0.070957	0.216739	-0.189542
	5	0	-3.941690	3.171520	0.362680	-0.117548	0.070722	0.269440
	6	1	-5.509550	4.899980	1.852530	0.000000	0.000000	0.000000
 Energy
	-60.367600000000
 PlusStress:  xx	yy	zz	yz	xz	xy
	-1.50385	-1.17570	-0.86517	-0.21209	-0.35535	0.02321
 Feature	PRAPs-ID	DFT_3695
 Feature	elements	HfMo
 Feature	from	aflow.org/JSON/HfMo/03fe08893163c11b/relax-step=15
 Feature	mindist	2.768637
 Feature	index	3695
END_CFG

BEGIN_CFG
 Size
	6
 Supercell
	1.915990      1.692830     -1.792180
	-5.458380      1.587060     -1.617160
	-1.892380      4.895400      5.210340
 AtomData:  id type	cartes_x	cartes_y	cartes_z	fx	fy	fz
	1	0	0.305420	0.114270	-0.294290	0.035118	-0.109241	-0.262611
	2	0	0.302000	3.443590	-0.104860	-0.010140	-0.153651	0.178228
	3	0	-1.803720	4.921180	1.739720	0.000000	0.000000	0.000000
	4	0	-2.017060	1.503360	-1.626040	0.010140	0.153651	-0.178228
	5	0	-3.936470	3.139850	0.355580	-0.035118	0.109241	0.262611
	6	1	-5.490910	4.868290	1.827230	0.000000	0.000000	0.000000
 Energy
	-60.389800000000
 PlusStress:  xx	yy	zz	yz	xz	xy
	-0.38397	-0.15121	-0.06571	-0.12588	-0.03246	-0.16546