BEGIN_CFG
 Size
	12
 Supercell
	5.696947304314463 0.0 0.0
	-2.848473640349922 4.933701096374556 0.0
	0.0 0.0 8.345390505109094
 AtomData:  id type	direct_x	direct_y	direct_z	
	1	0	0.000000000000000	0.000000000000000	0.274071543138604
	2	0	0.000000000000000	0.000000000000000	0.774071543138604
	3	0	0.333332985639572	0.666666984558105	0.625098405273306
	4	0	0.666667014360428	0.333333015441895	0.125098405273306
	5	0	0.333332985639572	0.666666984558105	0.187138817513890
	6	0	0.666667014360428	0.333333015441895	0.687138817513890
	7	0	0.333332985639572	0.666666984558105	0.398553981090841
	8	0	0.666667014360428	0.333333015441895	0.898553981090841
	9	0	0.333332985639572	0.666666984558105	0.886065572028984
	10	0	0.666667014360428	0.333333015441895	0.386065572028984
	11	1	0.000000000000000	0.000000000000000	0.040664718320112
	12	1	0.000000000000000	0.000000000000000	0.540664718320112
 Feature	from	Hf10Mo2_--_randSpg_with_spg_of:_186
 Feature	elements	HfMo
 Feature	PRAPs-ID	URX_1
END_CFG

BEGIN_CFG
 Size
	12
 Supercell
	5.611662363459106 0.0 0.0
	-2.805831170099002 4.859842170931511 0.0
	0.0 0.0 9.951391056456986
 AtomData:  id type	direct_x	direct_y	direct_z	
	1	0	0.000000000000000	0.000000000000000	0.239003453313140
	2	0	0.000000000000000	0.000000000000000	0.739003453313140
	3	0	0.333332985639572	0.666666984558105	0.040638420044137
	4	0	0.666667014360428	0.333333015441895	0.540638420044137
	5	0	0.333332985639572	0.666666984558105	0.260923047409882
	6	0	0.666667014360428	0.333333015441895	0.760923047409882
	7	0	0.333332985639572	0.666666984558105	0.749056293564654
	8	0	0.666667014360428	0.333333015441895	0.249056293564654
	9	0	0.333332985639572	0.666666984558105	0.500815171090753
	10	0	0.666667014360428	0.333333015441895	0.000815171090753
	11	1	0.000000000000000	0.000000000000000	0.922754337287248
	12	1	0.000000000000000	0.000000000000000	0.422754337287248
 Feature	from	Hf10Mo2_--_randSpg_with_spg_of:_186
 Feature	elements	HfMo
 Feature	PRAPs-ID	URX_2
END_CFG

BEGIN_CFG
 Size
	12
 Supercell
	5.711198600579927 0.0 0.0
	-2.855599288453117 4.946043080994358 0.0
	0.0 0.0 8.820952261841516
 AtomData:  id type	direct_x	direct_y	direct_z	
	1	0	0.333332985639572	0.666666984558105	0.865033882865030
	2	0	0.666667014360428	0.333333015441895	0.365033882865030
	3	0	0.333332985639572	0.666666984558105	0.217712280870458
	4	0	0.666667014360428	0.333333015441895	0.717712280870458
	5	0	0.333332985639572	0.666666984558105	0.433947969544346
	6	0	0.666667014360428	0.333333015441895	0.933947969544346
	7	0	0.000000000000000	0.000000000000000	0.944152065610534
	8	0	0.000000000000000	0.000000000000000	0.444152065610534
	9	0	0.000000000000000	0.000000000000000	0.220194081756985
	10	0	0.000000000000000	0.000000000000000	0.720194081756985
	11	1	0.333332985639572	0.666666984558105	0.664236343001760
	12	1	0.666667014360428	0.333333015441895	0.164236343001760
 Feature	from	Hf10Mo2_--_randSpg_with_spg_of:_186
 Feature	elements	HfMo
 Feature	PRAPs-ID	URX_3
END_CFG

BEGIN_CFG
 Size
	12
 Supercell
	7.651847124561207 0.0 0.0
	-3.825923546421631 6.626694004901096 0.0
	0.0 0.0 4.711170264168226
 AtomData:  id type	direct_x	direct_y	direct_z	
	1	0	0.333332985639572	0.666666984558105	0.028928416009198
	2	0	0.666667014360428	0.333333015441895	0.528928416009198
	3	0	0.666666984558105	0.333332985639572	0.971071583990802
	4	0	0.333333015441895	0.666667014360428	0.471071583990802
	5	0	0.207916517977854	0.415833035955709	0.250000000000000
	6	0	0.584166964044291	0.792083482022146	0.250000000000000
	7	0	0.207916517977854	0.792083482022146	0.250000000000000
	8	0	0.792083482022146	0.584166964044291	0.750000000000000
	9	0	0.415833035955709	0.207916517977854	0.750000000000000
	10	0	0.792083482022146	0.207916517977854	0.750000000000000
	11	1	0.000000000000000	0.000000000000000	0.000000000000000
	12	1	0.000000000000000	0.000000000000000	0.500000000000000
 Feature	from	Hf10Mo2_--_randSpg_with_spg_of:_194
 Feature	elements	HfMo
 Feature	PRAPs-ID	URX_4
END_CFG

BEGIN_CFG
 Size
	12
 Supercell
	6.130059181375831 0.0 0.0
	-3.065029577982952 5.308786985108723 0.0
	0.0 0.0 7.716832460746777
 AtomData:  id type	direct_x	direct_y	direct_z	
	1	0	0.000000000000000	0.000000000000000	0.250000000000000
	2	0	0.000000000000000	0.000000000000000	0.750000000000000
	3	0	0.333332985639572	0.666666984558105	0.750000000000000
	4	0	0.666667014360428	0.333333015441895	0.250000000000000
	5	0	0.227271898968084	0.454543797936167	0.250000000000000
	6	0	0.545456202063833	0.772728101031916	0.250000000000000
	7	0	0.227271898968084	0.772728101031916	0.250000000000000
	8	0	0.772728101031916	0.545456202063833	0.750000000000000
	9	0	0.454543797936167	0.227271898968084	0.750000000000000
	10	0	0.772728101031916	0.227271898968084	0.750000000000000
	11	1	0.000000000000000	0.000000000000000	0.000000000000000
	12	1	0.000000000000000	0.000000000000000	0.500000000000000
 Feature	from	Hf10Mo2_--_randSpg_with_spg_of:_194
 Feature	elements	HfMo
 Feature	PRAPs-ID	URX_5
END_CFG

BEGIN_CFG
 Size
	12
 Supercell
	6.017598015118081 0.0 0.0
	-3.008798995087161 5.211392758055716 0.0
	0.0 0.0 7.433733997477366
 AtomData:  id type	direct_x	direct_y	direct_z	
	1	0	0.000000000000000	0.000000000000000	0.367788541085371
	2	0	0.000000000000000	0.000000000000000	0.867788541085371
	3	0	0.000000000000000	0.000000000000000	0.632211458914629
	4	0	0.000000000000000	0.000000000000000	0.132211458914629
	5	0	0.500000000000000	0.000000000000000	0.000000000000000
	6	0	0.000000000000000	0.500000000000000	0.000000000000000
	7	0	0.500000000000000	0.500000000000000	0.000000000000000
	8	0	0.500000000000000	0.000000000000000	0.500000000000000
	9	0	0.000000000000000	0.500000000000000	0.500000000000000
	10	0	0.500000000000000	0.500000000000000	0.500000000000000
	11	1	0.333332985639572	0.666666984558105	0.250000000000000
	12	1	0.666667014360428	0.333333015441895	0.750000000000000
 Feature	from	Hf10Mo2_--_randSpg_with_spg_of:_194
 Feature	elements	HfMo
 Feature	PRAPs-ID	URX_6
END_CFG

BEGIN_CFG
 Size
	12
 Supercell
	5.232928038440635 0.0 0.0
	-2.616464008374719 4.53184862372717 0.0
	0.0 0.0 9.049483925636299
 AtomData:  id type	direct_x	direct_y	direct_z	
	1	0	0.333332985639572	0.666666984558105	0.775265737930165
	2	0	0.666667014360428	0.333333015441895	0.275265737930165
	3	1	0.333332985639572	0.666666984558105	0.302882739175659
	4	1	0.666667014360428	0.333333015441895	0.802882739175659
	5	1	0.333332985639572	0.666666984558105	0.065012567103994
	6	1	0.666667014360428	0.333333015441895	0.565012567103994
	7	1	0.333332985639572	0.666666984558105	0.562943610938805
	8	1	0.666667014360428	0.333333015441895	0.062943610938805
	9	1	0.000000000000000	0.000000000000000	0.990627887810371
	10	1	0.000000000000000	0.000000000000000	0.490627887810371
	11	1	0.000000000000000	0.000000000000000	0.231220764784548
	12	1	0.000000000000000	0.000000000000000	0.731220764784547
 Feature	from	Hf2Mo10_--_randSpg_with_spg_of:_186
 Feature	elements	HfMo
 Feature	PRAPs-ID	URX_7
END_CFG

BEGIN_CFG
 Size
	12
 Supercell
	4.96438369431946 0.0 0.0
	-2.482191836870708 4.299282399354263 0.0
	0.0 0.0 9.31329254943521
 AtomData:  id type	direct_x	direct_y	direct_z	
	1	0	0.333332985639572	0.666666984558105	0.452956818458373
	2	0	0.666667014360428	0.333333015441895	0.952956818458373
	3	1	0.000000000000000	0.000000000000000	0.058457575214807
	4	1	0.000000000000000	0.000000000000000	0.558457575214807
	5	1	0.333332985639572	0.666666984558105	0.843951385648330
	6	1	0.666667014360428	0.333333015441895	0.343951385648330
	7	1	0.000000000000000	0.000000000000000	0.391459177719419
	8	1	0.000000000000000	0.000000000000000	0.891459177719419
	9	1	0.000000000000000	0.000000000000000	0.724696019990656
	10	1	0.000000000000000	0.000000000000000	0.224696019990656
	11	1	0.333332985639572	0.666666984558105	0.212241241203592
	12	1	0.666667014360428	0.333333015441895	0.712241241203592
 Feature	from	Hf2Mo10_--_randSpg_with_spg_of:_186
 Feature	elements	HfMo
 Feature	PRAPs-ID	URX_8
END_CFG

BEGIN_CFG
 Size
	12
 Supercell
	5.803905300464534 0.0 0.0
	-2.901952638203279 5.02632943830638 0.0
	0.0 0.0 6.962965809835179
 AtomData:  id type	direct_x	direct_y	direct_z	
	1	0	0.000000000000000	0.000000000000000	0.569231315772340
	2	0	0.000000000000000	0.000000000000000	0.069231315772341
	3	1	0.333332985639572	0.666666984558105	0.409366974530760
	4	1	0.666667014360428	0.333333015441895	0.909366974530760
	5	1	0.333332985639572	0.666666984558105	0.646689532487221
	6	1	0.666667014360428	0.333333015441895	0.146689532487221
	7	1	0.000000000000000	0.000000000000000	0.836602487943249
	8	1	0.000000000000000	0.000000000000000	0.336602487943249
	9	1	0.333332985639572	0.666666984558105	0.905709636770472
	10	1	0.666667014360428	0.333333015441895	0.405709636770472
	11	1	0.333332985639572	0.666666984558105	0.149148167424021
	12	1	0.666667014360428	0.333333015441895	0.649148167424021
 Feature	from	Hf2Mo10_--_randSpg_with_spg_of:_186
 Feature	elements	HfMo
 Feature	PRAPs-ID	URX_9
END_CFG

BEGIN_CFG
 Size
	12
 Supercell
	5.327229737189202 0.0 0.0
	-2.663614857553556 4.613516290576298 0.0
	0.0 0.0 7.619219792809937
 AtomData:  id type	direct_x	direct_y	direct_z	
	1	0	0.000000000000000	0.000000000000000	0.250000000000000
	2	0	0.000000000000000	0.000000000000000	0.750000000000000
	3	1	0.000000000000000	0.000000000000000	0.000000000000000
	4	1	0.000000000000000	0.000000000000000	0.500000000000000
	5	1	0.450248630211945	0.900497260423889	0.250000000000000
	6	1	0.099502739576111	0.549751369788055	0.250000000000000
	7	1	0.450248630211945	0.549751369788055	0.250000000000000
	8	1	0.549751369788055	0.099502739576111	0.750000000000000
	9	1	0.900497260423889	0.450248630211945	0.750000000000000
	10	1	0.549751369788055	0.450248630211945	0.750000000000000
	11	1	0.333332985639572	0.666666984558105	0.750000000000000
	12	1	0.666667014360428	0.333333015441895	0.250000000000000
 Feature	from	Hf2Mo10_--_randSpg_with_spg_of:_194
 Feature	elements	HfMo
 Feature	PRAPs-ID	URX_10
END_CFG

BEGIN_CFG
 Size
	12
 Supercell
	7.434458629784998 0.0 0.0
	-3.717229299484079 6.438430045674312 0.0
	0.0 0.0 3.99353080768601
 AtomData:  id type	direct_x	direct_y	direct_z	
	1	0	0.000000000000000	0.000000000000000	0.250000000000000
	2	0	0.000000000000000	0.000000000000000	0.750000000000000
	3	1	0.333332985639572	0.666666984558105	0.250000000000000
	4	1	0.666667014360428	0.333333015441895	0.750000000000000
	5	1	0.131953050143304	0.263906100286608	0.250000000000000
	6	1	0.736093899713392	0.868046949856696	0.250000000000000
	7	1	0.131953050143304	0.868046949856696	0.250000000000000
	8	1	0.868046949856696	0.736093899713392	0.750000000000000
	9	1	0.263906100286608	0.131953050143304	0.750000000000000
	10	1	0.868046949856696	0.131953050143304	0.750000000000000
	11	1	0.333332985639572	0.666666984558105	0.750000000000000
	12	1	0.666667014360428	0.333333015441895	0.250000000000000
 Feature	from	Hf2Mo10_--_randSpg_with_spg_of:_194
 Feature	elements	HfMo
 Feature	PRAPs-ID	URX_11
END_CFG

BEGIN_CFG
 Size
	12
 Supercell
	6.654264036560055 0.0 0.0
	-3.327132004488614 5.762761707112666 0.0
	0.0 0.0 5.124285607578552
 AtomData:  id type	direct_x	direct_y	direct_z	
	1	0	0.333332985639572	0.666666984558105	0.750000000000000
	2	0	0.666667014360428	0.333333015441895	0.250000000000000
	3	1	0.333332985639572	0.666666984558105	0.250000000000000
	4	1	0.666667014360428	0.333333015441895	0.750000000000000
	5	1	0.500000000000000	0.000000000000000	0.000000000000000
	6	1	0.000000000000000	0.500000000000000	0.000000000000000
	7	1	0.500000000000000	0.500000000000000	0.000000000000000
	8	1	0.500000000000000	0.000000000000000	0.500000000000000
	9	1	0.000000000000000	0.500000000000000	0.500000000000000
	10	1	0.500000000000000	0.500000000000000	0.500000000000000
	11	1	0.000000000000000	0.000000000000000	0.000000000000000
	12	1	0.000000000000000	0.000000000000000	0.500000000000000
 Feature	from	Hf2Mo10_--_randSpg_with_spg_of:_194
 Feature	elements	HfMo
 Feature	PRAPs-ID	URX_12
END_CFG

BEGIN_CFG
 Size
	4
 Supercell
	4.297231957417831 0.0 0.0
	-2.148615969802611 3.721512046220228 0.0
	0.0 0.0 4.715883166823453
 AtomData:  id type	direct_x	direct_y	direct_z	
	1	0	0.333332985639572	0.666666984558105	0.101342811545255
	2	0	0.666667014360428	0.333333015441895	0.601342811545255
	3	1	0.333332985639572	0.666666984558105	0.643457782716846
	4	1	0.666667014360428	0.333333015441895	0.143457782716846
 Feature	from	Hf2Mo2_--_randSpg_with_spg_of:_186
 Feature	elements	HfMo
 Feature	PRAPs-ID	URX_13
END_CFG

BEGIN_CFG
 Size
	4
 Supercell
	4.528778453719601 0.0 0.0
	-2.2643892174736 3.922037194451909 0.0
	0.0 0.0 4.36465840021419
 AtomData:  id type	direct_x	direct_y	direct_z	
	1	0	0.333332985639572	0.666666984558105	0.070974653846622
	2	0	0.666667014360428	0.333333015441895	0.570974653846622
	3	1	0.333332985639572	0.666666984558105	0.482528393064507
	4	1	0.666667014360428	0.333333015441895	0.982528393064507
 Feature	from	Hf2Mo2_--_randSpg_with_spg_of:_186
 Feature	elements	HfMo
 Feature	PRAPs-ID	URX_14
END_CFG

BEGIN_CFG
 Size
	4
 Supercell
	3.721645558012079 0.0 0.0
	-1.860822771292677 3.223039601573285 0.0
	0.0 0.0 6.204723827102606
 AtomData:  id type	direct_x	direct_y	direct_z	
	1	0	0.333332985639572	0.666666984558105	0.293583921620956
	2	0	0.666667014360428	0.333333015441895	0.793583921620956
	3	1	0.000000000000000	0.000000000000000	0.697193286526396
	4	1	0.000000000000000	0.000000000000000	0.197193286526396
 Feature	from	Hf2Mo2_--_randSpg_with_spg_of:_186
 Feature	elements	HfMo
 Feature	PRAPs-ID	URX_15
END_CFG

BEGIN_CFG
 Size
	4
 Supercell
	4.669208868956993 0.0 0.0
	-2.334604424801244 4.043653501679525 0.0
	0.0 0.0 3.728768296270307
 AtomData:  id type	direct_x	direct_y	direct_z	
	1	0	0.333332985639572	0.666666984558105	0.750000000000000
	2	0	0.666667014360428	0.333333015441895	0.250000000000000
	3	1	0.000000000000000	0.000000000000000	0.250000000000000
	4	1	0.000000000000000	0.000000000000000	0.750000000000000
 Feature	from	Hf2Mo2_--_randSpg_with_spg_of:_194
 Feature	elements	HfMo
 Feature	PRAPs-ID	URX_16
END_CFG

BEGIN_CFG
 Size
	4
 Supercell
	4.095060658286425 0.0 0.0
	-2.047530320655921 3.54642656501441 0.0
	0.0 0.0 5.064105011647861
 AtomData:  id type	direct_x	direct_y	direct_z	
	1	0	0.333332985639572	0.666666984558105	0.250000000000000
	2	0	0.666667014360428	0.333333015441895	0.750000000000000
	3	1	0.000000000000000	0.000000000000000	0.250000000000000
	4	1	0.000000000000000	0.000000000000000	0.750000000000000
 Feature	from	Hf2Mo2_--_randSpg_with_spg_of:_194
 Feature	elements	HfMo
 Feature	PRAPs-ID	URX_17
END_CFG

BEGIN_CFG
 Size
	4
 Supercell
	4.248946239957634 0.0 0.0
	-2.124473111172588 3.679695388201961 0.0
	0.0 0.0 4.399044726328756
 AtomData:  id type	direct_x	direct_y	direct_z	
	1	0	0.333332985639572	0.666666984558105	0.250000000000000
	2	0	0.666667014360428	0.333333015441895	0.750000000000000
	3	1	0.000000000000000	0.000000000000000	0.250000000000000
	4	1	0.000000000000000	0.000000000000000	0.750000000000000
 Feature	from	Hf2Mo2_--_randSpg_with_spg_of:_194
 Feature	elements	HfMo
 Feature	PRAPs-ID	URX_18
END_CFG

BEGIN_CFG
 Size
	6
 Supercell
	4.662942747719256 0.0 0.0
	-2.331471364195362 4.038226881496954 0.0
	0.0 0.0 5.791564661278523
 AtomData:  id type	direct_x	direct_y	direct_z	
	1	0	0.333332985639572	0.666666984558105	0.216579280757260
	2	0	0.666667014360428	0.333333015441895	0.716579280757260
	3	1	0.000000000000000	0.000000000000000	0.383310383742720
	4	1	0.000000000000000	0.000000000000000	0.883310383742720
	5	1	0.333332985639572	0.666666984558105	0.645508789930876
	6	1	0.666667014360428	0.333333015441895	0.145508789930876
 Feature	from	Hf2Mo4_--_randSpg_with_spg_of:_186
 Feature	elements	HfMo
 Feature	PRAPs-ID	URX_19
END_CFG

BEGIN_CFG
 Size
	6
 Supercell
	4.68051315852275 0.0 0.0
	-2.340256569560694 4.053443303628733 0.0
	0.0 0.0 6.07593867450854
 AtomData:  id type	direct_x	direct_y	direct_z	
	1	0	0.333332985639572	0.666666984558105	0.575234309249415
	2	0	0.666667014360428	0.333333015441895	0.075234309249415
	3	1	0.333332985639572	0.666666984558105	0.020370324703358
	4	1	0.666667014360428	0.333333015441895	0.520370324703358
	5	1	0.000000000000000	0.000000000000000	0.570610678971122
	6	1	0.000000000000000	0.000000000000000	0.070610678971122
 Feature	from	Hf2Mo4_--_randSpg_with_spg_of:_186
 Feature	elements	HfMo
 Feature	PRAPs-ID	URX_20
END_CFG

BEGIN_CFG
 Size
	6
 Supercell
	4.349112494106206 0.0 0.0
	-2.174556238039273 3.766441909016412 0.0
	0.0 0.0 7.226885056298826
 AtomData:  id type	direct_x	direct_y	direct_z	
	1	0	0.000000000000000	0.000000000000000	0.353563447579393
	2	0	0.000000000000000	0.000000000000000	0.853563447579393
	3	1	0.333332985639572	0.666666984558105	0.886461817114774
	4	1	0.666667014360428	0.333333015441895	0.386461817114774
	5	1	0.000000000000000	0.000000000000000	0.098376978667598
	6	1	0.000000000000000	0.000000000000000	0.598376978667598
 Feature	from	Hf2Mo4_--_randSpg_with_spg_of:_186
 Feature	elements	HfMo
 Feature	PRAPs-ID	URX_21
END_CFG

BEGIN_CFG
 Size
	6
 Supercell
	3.820114762226956 0.0 0.0
	-1.910057373196031 3.308316434031634 0.0
	0.0 0.0 8.838188463847795
 AtomData:  id type	direct_x	direct_y	direct_z	
	1	0	0.333332985639572	0.666666984558105	0.932931023393803
	2	0	0.666667014360428	0.333333015441895	0.432931023393803
	3	1	0.666666984558105	0.333332985639572	0.067068976606197
	4	1	0.333333015441895	0.666667014360428	0.567068976606197
	5	1	0.000000000000000	0.000000000000000	0.000000000000000
	6	1	0.000000000000000	0.000000000000000	0.500000000000000
 Feature	from	Hf2Mo4_--_randSpg_with_spg_of:_194
 Feature	elements	HfMo
 Feature	PRAPs-ID	URX_22
END_CFG

BEGIN_CFG
 Size
	6
 Supercell
	5.026402092035454 0.0 0.0
	-2.513201035600168 4.352991907352531 0.0
	0.0 0.0 5.109066116312373
 AtomData:  id type	direct_x	direct_y	direct_z	
	1	0	0.000000000000000	0.000000000000000	0.000000000000000
	2	0	0.000000000000000	0.000000000000000	0.500000000000000
	3	1	0.333332985639572	0.666666984558105	0.250000000000000
	4	1	0.666667014360428	0.333333015441895	0.750000000000000
	5	1	0.333332985639572	0.666666984558105	0.750000000000000
	6	1	0.666667014360428	0.333333015441895	0.250000000000000
 Feature	from	Hf2Mo4_--_randSpg_with_spg_of:_194
 Feature	elements	HfMo
 Feature	PRAPs-ID	URX_23
END_CFG

BEGIN_CFG
 Size
	6
 Supercell
	5.428910149839599 0.0 0.0
	-2.714455063668015 4.701574111120497 0.0
	0.0 0.0 4.065669612082125
 AtomData:  id type	direct_x	direct_y	direct_z	
	1	0	0.333332985639572	0.666666984558105	0.250000000000000
	2	0	0.666667014360428	0.333333015441895	0.750000000000000
	3	1	0.333332985639572	0.666666984558105	0.750000000000000
	4	1	0.666667014360428	0.333333015441895	0.250000000000000
	5	1	0.000000000000000	0.000000000000000	0.250000000000000
	6	1	0.000000000000000	0.000000000000000	0.750000000000000
 Feature	from	Hf2Mo4_--_randSpg_with_spg_of:_194
 Feature	elements	HfMo
 Feature	PRAPs-ID	URX_24
END_CFG

BEGIN_CFG
 Size
	8
 Supercell
	5.327142666225575 0.0 0.0
	-2.663571322071923 4.613440884909761 0.0
	0.0 0.0 5.782563790491118
 AtomData:  id type	direct_x	direct_y	direct_z	
	1	0	0.000000000000000	0.000000000000000	0.333041915216340
	2	0	0.000000000000000	0.000000000000000	0.833041915216340
	3	1	0.333332985639572	0.666666984558105	0.775914654023252
	4	1	0.666667014360428	0.333333015441895	0.275914654023252
	5	1	0.333332985639572	0.666666984558105	0.124427498505224
	6	1	0.666667014360428	0.333333015441895	0.624427498505224
	7	1	0.333332985639572	0.666666984558105	0.465603642268043
	8	1	0.666667014360428	0.333333015441895	0.965603642268043
 Feature	from	Hf2Mo6_--_randSpg_with_spg_of:_186
 Feature	elements	HfMo
 Feature	PRAPs-ID	URX_25
END_CFG

BEGIN_CFG
 Size
	8
 Supercell
	5.053972184595523 0.0 0.0
	-2.526986081823061 4.376868307927229 0.0
	0.0 0.0 6.066246035090126
 AtomData:  id type	direct_x	direct_y	direct_z	
	1	0	0.000000000000000	0.000000000000000	0.352739616240991
	2	0	0.000000000000000	0.000000000000000	0.852739616240991
	3	1	0.333332985639572	0.666666984558105	0.184697172520462
	4	1	0.666667014360428	0.333333015441895	0.684697172520462
	5	1	0.333332985639572	0.666666984558105	0.828201650735639
	6	1	0.666667014360428	0.333333015441895	0.328201650735639
	7	1	0.333332985639572	0.666666984558105	0.475863169196108
	8	1	0.666667014360428	0.333333015441895	0.975863169196108
 Feature	from	Hf2Mo6_--_randSpg_with_spg_of:_186
 Feature	elements	HfMo
 Feature	PRAPs-ID	URX_26
END_CFG

BEGIN_CFG
 Size
	8
 Supercell
	4.287684455488074 0.0 0.0
	-2.14384221885752 3.713243666994953 0.0
	0.0 0.0 8.18287822005973
 AtomData:  id type	direct_x	direct_y	direct_z	
	1	0	0.000000000000000	0.000000000000000	0.922334953271234
	2	0	0.000000000000000	0.000000000000000	0.422334953271234
	3	1	0.333332985639572	0.666666984558105	0.019582921093578
	4	1	0.666667014360428	0.333333015441895	0.519582921093578
	5	1	0.333332985639572	0.666666984558105	0.630286343866428
	6	1	0.666667014360428	0.333333015441895	0.130286343866428
	7	1	0.000000000000000	0.000000000000000	0.661990115406960
	8	1	0.000000000000000	0.000000000000000	0.161990115406960
 Feature	from	Hf2Mo6_--_randSpg_with_spg_of:_186
 Feature	elements	HfMo
 Feature	PRAPs-ID	URX_27
END_CFG

BEGIN_CFG
 Size
	8
 Supercell
	6.203173448378187 0.0 0.0
	-3.101586711332596 5.37210579779933 0.0
	0.0 0.0 4.363339152162191
 AtomData:  id type	direct_x	direct_y	direct_z	
	1	0	0.500000000000000	0.000000000000000	0.000000000000000
	2	0	0.000000000000000	0.500000000000000	0.000000000000000
	3	1	0.500000000000000	0.500000000000000	0.000000000000000
	4	1	0.500000000000000	0.000000000000000	0.500000000000000
	5	1	0.000000000000000	0.500000000000000	0.500000000000000
	6	1	0.500000000000000	0.500000000000000	0.500000000000000
	7	1	0.000000000000000	0.000000000000000	0.000000000000000
	8	1	0.000000000000000	0.000000000000000	0.500000000000000
 Feature	from	Hf2Mo6_--_randSpg_with_spg_of:_194
 Feature	elements	HfMo
 Feature	PRAPs-ID	URX_28
END_CFG

BEGIN_CFG
 Size
	8
 Supercell
	4.593935553358494 0.0 0.0
	-2.296967767158004 3.97846489805407 0.0
	0.0 0.0 7.958997236756633
 AtomData:  id type	direct_x	direct_y	direct_z	
	1	0	0.333332985639572	0.666666984558105	0.250000000000000
	2	0	0.666667014360428	0.333333015441895	0.750000000000000
	3	1	0.333332985639572	0.666666984558105	0.750000000000000
	4	1	0.666667014360428	0.333333015441895	0.250000000000000
	5	1	0.000000000000000	0.000000000000000	0.000000000000000
	6	1	0.000000000000000	0.000000000000000	0.500000000000000
	7	1	0.000000000000000	0.000000000000000	0.250000000000000
	8	1	0.000000000000000	0.000000000000000	0.750000000000000
 Feature	from	Hf2Mo6_--_randSpg_with_spg_of:_194
 Feature	elements	HfMo
 Feature	PRAPs-ID	URX_29
END_CFG

BEGIN_CFG
 Size
	8
 Supercell
	4.741597591191728 0.0 0.0
	-2.370798785768581 4.106343974168922 0.0
	0.0 0.0 6.866641219901122
 AtomData:  id type	direct_x	direct_y	direct_z	
	1	0	0.500000000000000	0.000000000000000	0.000000000000000
	2	0	0.000000000000000	0.500000000000000	0.000000000000000
	3	1	0.500000000000000	0.500000000000000	0.000000000000000
	4	1	0.500000000000000	0.000000000000000	0.500000000000000
	5	1	0.000000000000000	0.500000000000000	0.500000000000000
	6	1	0.500000000000000	0.500000000000000	0.500000000000000
	7	1	0.333332985639572	0.666666984558105	0.750000000000000
	8	1	0.666667014360428	0.333333015441895	0.250000000000000
 Feature	from	Hf2Mo6_--_randSpg_with_spg_of:_194
 Feature	elements	HfMo
 Feature	PRAPs-ID	URX_30
END_CFG

BEGIN_CFG
 Size
	8
 Supercell
	5.070242531209693 0.0 0.0
	0.0 5.070242531209693 0.0
	0.0 0.0 5.070242531209693
 AtomData:  id type	direct_x	direct_y	direct_z	
	1	0	0.000000000000000	0.500000000000000	0.500000000000000
	2	0	0.500000000000000	0.000000000000000	0.500000000000000
	3	1	0.500000000000000	0.500000000000000	0.000000000000000
	4	1	0.500000000000000	0.000000000000000	0.000000000000000
	5	1	0.000000000000000	0.500000000000000	0.000000000000000
	6	1	0.000000000000000	0.000000000000000	0.500000000000000
	7	1	0.000000000000000	0.000000000000000	0.000000000000000
	8	1	0.500000000000000	0.500000000000000	0.500000000000000
 Feature	from	Hf2Mo6_--_randSpg_with_spg_of:_229
 Feature	elements	HfMo
 Feature	PRAPs-ID	URX_31
END_CFG

BEGIN_CFG
 Size
	8
 Supercell
	5.091645019131836 0.0 0.0
	0.0 5.091645019131836 0.0
	0.0 0.0 5.091645019131836
 AtomData:  id type	direct_x	direct_y	direct_z	
	1	0	0.000000000000000	0.500000000000000	0.500000000000000
	2	0	0.500000000000000	0.000000000000000	0.500000000000000
	3	1	0.500000000000000	0.500000000000000	0.000000000000000
	4	1	0.500000000000000	0.000000000000000	0.000000000000000
	5	1	0.000000000000000	0.500000000000000	0.000000000000000
	6	1	0.000000000000000	0.000000000000000	0.500000000000000
	7	1	0.000000000000000	0.000000000000000	0.000000000000000
	8	1	0.500000000000000	0.500000000000000	0.500000000000000
 Feature	from	Hf2Mo6_--_randSpg_with_spg_of:_229
 Feature	elements	HfMo
 Feature	PRAPs-ID	URX_32
END_CFG

BEGIN_CFG
 Size
	8
 Supercell
	5.344596082753545 0.0 0.0
	0.0 5.344596082753545 0.0
	0.0 0.0 5.344596082753545
 AtomData:  id type	direct_x	direct_y	direct_z	
	1	0	0.000000000000000	0.500000000000000	0.500000000000000
	2	0	0.500000000000000	0.000000000000000	0.500000000000000
	3	1	0.500000000000000	0.500000000000000	0.000000000000000
	4	1	0.500000000000000	0.000000000000000	0.000000000000000
	5	1	0.000000000000000	0.500000000000000	0.000000000000000
	6	1	0.000000000000000	0.000000000000000	0.500000000000000
	7	1	0.000000000000000	0.000000000000000	0.000000000000000
	8	1	0.500000000000000	0.500000000000000	0.500000000000000
 Feature	from	Hf2Mo6_--_randSpg_with_spg_of:_229
 Feature	elements	HfMo
 Feature	PRAPs-ID	URX_33
END_CFG

BEGIN_CFG
 Size
	10
 Supercell
	4.300756895963349 0.0 0.0
	-2.150378439068064 3.724564732551643 0.0
	0.0 0.0 9.864997887218523
 AtomData:  id type	direct_x	direct_y	direct_z	
	1	0	0.000000000000000	0.000000000000000	0.780338886224716
	2	0	0.000000000000000	0.000000000000000	0.280338886224716
	3	1	0.333332985639572	0.666666984558105	0.831261949013515
	4	1	0.666667014360428	0.333333015441895	0.331261949013515
	5	1	0.000000000000000	0.000000000000000	0.476244229566472
	6	1	0.000000000000000	0.000000000000000	0.976244229566471
	7	1	0.333332985639572	0.666666984558105	0.611779228261926
	8	1	0.666667014360428	0.333333015441895	0.111779228261926
	9	1	0.333332985639572	0.666666984558105	0.424385924810101
	10	1	0.666667014360428	0.333333015441895	0.924385924810101
 Feature	from	Hf2Mo8_--_randSpg_with_spg_of:_186
 Feature	elements	HfMo
 Feature	PRAPs-ID	URX_34
END_CFG

BEGIN_CFG
 Size
	10
 Supercell
	4.501179615988049 0.0 0.0
	-2.250589798665025 3.898135899828436 0.0
	0.0 0.0 9.913721647770771
 AtomData:  id type	direct_x	direct_y	direct_z	
	1	0	0.333332985639572	0.666666984558105	0.997793671731727
	2	0	0.666667014360428	0.333333015441895	0.497793671731727
	3	1	0.333332985639572	0.666666984558105	0.349575561902302
	4	1	0.666667014360428	0.333333015441895	0.849575561902302
	5	1	0.000000000000000	0.000000000000000	0.025625947100790
	6	1	0.000000000000000	0.000000000000000	0.525625947100790
	7	1	0.333332985639572	0.666666984558105	0.584339333489193
	8	1	0.666667014360428	0.333333015441895	0.084339333489193
	9	1	0.333332985639572	0.666666984558105	0.804609123353297
	10	1	0.666667014360428	0.333333015441895	0.304609123353297
 Feature	from	Hf2Mo8_--_randSpg_with_spg_of:_186
 Feature	elements	HfMo
 Feature	PRAPs-ID	URX_35
END_CFG

BEGIN_CFG
 Size
	10
 Supercell
	4.357077413636167 0.0 0.0
	-2.178538697787745 3.773339731677988 0.0
	0.0 0.0 9.80032109274392
 AtomData:  id type	direct_x	direct_y	direct_z	
	1	0	0.333332985639572	0.666666984558105	0.723461692832740
	2	0	0.666667014360428	0.333333015441895	0.223461692832740
	3	1	0.333332985639572	0.666666984558105	0.099817229206243
	4	1	0.666667014360428	0.333333015441895	0.599817229206243
	5	1	0.000000000000000	0.000000000000000	0.762365205901265
	6	1	0.000000000000000	0.000000000000000	0.262365205901265
	7	1	0.000000000000000	0.000000000000000	0.104344771967178
	8	1	0.000000000000000	0.000000000000000	0.604344771967178
	9	1	0.333332985639572	0.666666984558105	0.911564840518258
	10	1	0.666667014360428	0.333333015441895	0.411564840518258
 Feature	from	Hf2Mo8_--_randSpg_with_spg_of:_186
 Feature	elements	HfMo
 Feature	PRAPs-ID	URX_36
END_CFG

BEGIN_CFG
 Size
	10
 Supercell
	5.737787029316243 0.0 0.0
	-2.868893502766169 4.969069335758536 0.0
	0.0 0.0 6.18392079538473
 AtomData:  id type	direct_x	direct_y	direct_z	
	1	0	0.333332985639572	0.666666984558105	0.750000000000000
	2	0	0.666667014360428	0.333333015441895	0.250000000000000
	3	1	0.500000000000000	0.000000000000000	0.000000000000000
	4	1	0.000000000000000	0.500000000000000	0.000000000000000
	5	1	0.500000000000000	0.500000000000000	0.000000000000000
	6	1	0.500000000000000	0.000000000000000	0.500000000000000
	7	1	0.000000000000000	0.500000000000000	0.500000000000000
	8	1	0.500000000000000	0.500000000000000	0.500000000000000
	9	1	0.000000000000000	0.000000000000000	0.000000000000000
	10	1	0.000000000000000	0.000000000000000	0.500000000000000
 Feature	from	Hf2Mo8_--_randSpg_with_spg_of:_194
 Feature	elements	HfMo
 Feature	PRAPs-ID	URX_37
END_CFG

BEGIN_CFG
 Size
	10
 Supercell
	5.377177094482836 0.0 0.0
	-2.688588536096854 4.656771970904249 0.0
	0.0 0.0 7.382583417383949
 AtomData:  id type	direct_x	direct_y	direct_z	
	1	0	0.333332985639572	0.666666984558105	0.750000000000000
	2	0	0.666667014360428	0.333333015441895	0.250000000000000
	3	1	0.500000000000000	0.000000000000000	0.000000000000000
	4	1	0.000000000000000	0.500000000000000	0.000000000000000
	5	1	0.500000000000000	0.500000000000000	0.000000000000000
	6	1	0.500000000000000	0.000000000000000	0.500000000000000
	7	1	0.000000000000000	0.500000000000000	0.500000000000000
	8	1	0.500000000000000	0.500000000000000	0.500000000000000
	9	1	0.333332985639572	0.666666984558105	0.250000000000000
	10	1	0.666667014360428	0.333333015441895	0.750000000000000
 Feature	from	Hf2Mo8_--_randSpg_with_spg_of:_194
 Feature	elements	HfMo
 Feature	PRAPs-ID	URX_38
END_CFG

BEGIN_CFG
 Size
	10
 Supercell
	5.794353334007783 0.0 0.0
	-2.897176654994701 5.018057192687308 0.0
	0.0 0.0 6.406855314098449