BEGIN_CFG
 Size
	2
 Supercell
	1.600221     -2.771663     -0.000000
	1.600221      2.771663     -0.000000
	0.000000      0.000000      5.056971
 AtomData:  id type	cartes_x	cartes_y	cartes_z	fx	fy	fz
	1	0	1.600221	-0.923890	3.792728	0.000000	0.000000	0.000000
	2	0	1.600221	0.923890	1.264243	0.000000	0.000000	0.000000
 Energy
	-19.906700000000
 PlusStress:  xx	yy	zz	yz	xz	xy
	0.11000	0.11000	0.03000	0.00000	0.00000	0.00000
 Feature	EFS_by	vasp
 Feature	elements	Hf
 Feature	enthalpy_formation_atom	-0.0004205
 Feature	from	aflow.org:ICSD_WEB/HEX/Hf1_ICSD_426944
 Feature	mindist	3.131693
 Feature	PRAPs-ID	REF_1
END_CFG

BEGIN_CFG
 Size
	1
 Supercell
	-1.582608      1.582608      1.582608
	1.582608     -1.582608      1.582608
	1.582608      1.582608     -1.582608
 AtomData:  id type	cartes_x	cartes_y	cartes_z	fx	fy	fz
	1	1	0.000000	0.000000	0.000000	0.000000	0.000000	0.000000
 Energy
	-10.843900000000
 PlusStress:  xx	yy	zz	yz	xz	xy
	-0.11000	-0.11000	-0.11000	0.00000	0.00000	0.01000
 Feature	EFS_by	vasp
 Feature	elements	Mo
 Feature	enthalpy_formation_atom	-0.0
 Feature	from	aflow.org:LIB1_RAW/Mo_pv:PAW_PBE:08Apr2002/A2
 Feature	mindist	2.741157
 Feature	PRAPs-ID	REF_2
END_CFG

