BEGIN_CFG
 Size
    24
 Supercell
         2.695860     -4.669360      0.000000
         2.695890      4.669380      0.000000
         0.000000      0.000000     17.472300
 AtomData:  id type       cartes_x      cartes_y      cartes_z           fx          fy          fz
             1    0       0.000000      0.000000      1.651750    -0.000050   -0.000029    0.090891
             2    0       0.000000      0.000000     10.387900     0.000050    0.000029    0.090891
             3    0       0.000000      0.000000     15.820600     0.000050    0.000029   -0.090891
             4    0       0.000000      0.000000      7.084400    -0.000050   -0.000029   -0.090891
             5    0       2.696020     -1.556360     14.744200    -0.001567   -0.000905   -0.047116
             6    0       2.695730      1.556380      6.008100     0.001567    0.000905   -0.047116
             7    0       2.695730      1.556380      2.728050     0.001567    0.000905    0.047116
             8    0       2.696020     -1.556360     11.464200    -0.001567   -0.000905    0.047116
             9    1       2.695980     -1.556380      2.165500    -0.001824   -0.001053   -0.050204
            10    1       2.695760      1.556400     10.901600     0.001824    0.001053   -0.050204
            11    1       2.695760      1.556400     15.306800     0.001824    0.001053    0.050204
            12    1       2.695980     -1.556380      6.570650    -0.001824   -0.001053    0.050204
            13    1       1.347940      2.334690      0.000000     0.000000    0.000000    0.000000
            14    1       2.695870      0.000010      0.000000     0.000000    0.000000    0.000000
            15    1       1.347930     -2.334680      0.000000     0.000000    0.000000    0.000000
            16    1       1.347940      2.334690      8.736150     0.000000    0.000000    0.000000
            17    1       2.695870      0.000010      8.736150     0.000000    0.000000    0.000000
            18    1       1.347930     -2.334680      8.736150     0.000000    0.000000    0.000000
            19    1       1.319230     -0.761680      4.368070     0.036513   -0.021015    0.000000
            20    1       2.695840     -3.146030      4.368070     0.000057    0.042129    0.000000
            21    1       4.072550     -0.761620      4.368070    -0.036707   -0.021193    0.000000
            22    1       4.072510      0.761700     13.104200    -0.036513    0.021015    0.000000
            23    1       2.695910      3.146050     13.104200    -0.000057   -0.042129    0.000000
            24    1       1.319200      0.761640     13.104200     0.036707    0.021193    0.000000
 Energy
       -211.471000000000
 PlusStress:  xx          yy          zz          yz          xz          xy
        -0.07962    -0.07962    -0.41183     0.00000     0.00000     0.00000
 Feature   PRAPs-ID	DFT_5
 Feature   elements	HfMo
 Feature   from	aflow.org/JSON/HfMo/26e0cf856061302f/relax-step=5
 Feature   mindist	2.638430
END_CFG

BEGIN_CFG
 Size
    24
 Supercell
         2.695350     -4.668520      0.000000
         2.695350      4.668520      0.000000
         0.000000      0.000000     17.463700
 AtomData:  id type       cartes_x      cartes_y      cartes_z           fx          fy          fz
             1    0       0.000000      0.000000      1.654490     0.000000   -0.000091    0.055571
             2    0       0.000000      0.000000     10.386300     0.000000    0.000091    0.055571
             3    0       0.000000      0.000000     15.809200     0.000000    0.000091   -0.055571
             4    0       0.000000      0.000000      7.077340     0.000000   -0.000091   -0.055571
             5    0       2.695350      1.556280     14.735000     0.000000   -0.000906   -0.030652
             6    0       2.695350     -1.556280      6.003190     0.000000    0.000906   -0.030652
             7    0       2.695350     -1.556280      2.728640     0.000000    0.000906    0.030652
             8    0       2.695350      1.556280     11.460500     0.000000   -0.000906    0.030652
             9    1       2.695350      1.556220      2.162440     0.000000   -0.000610   -0.014251
            10    1       2.695350     -1.556220     10.894300     0.000000    0.000610   -0.014251
            11    1       2.695350     -1.556220     15.301200     0.000000    0.000610    0.014251
            12    1       2.695350      1.556220      6.569390     0.000000   -0.000610    0.014251
            13    1       1.347670     -2.334260      0.000000     0.000000    0.000000    0.000000
            14    1       1.347670      2.334260      0.000000     0.000000    0.000000    0.000000
            15    1       2.695350      0.000000      0.000000     0.000000    0.000000    0.000000
            16    1       1.347670     -2.334260      8.731840     0.000000    0.000000    0.000000
            17    1       1.347670      2.334260      8.731840     0.000000    0.000000    0.000000
            18    1       2.695350      0.000000      8.731840     0.000000    0.000000    0.000000
            19    1       1.320520      0.762380      4.365920    -0.005710   -0.003134    0.000000
            20    1       4.070180      0.762380      4.365920     0.005710   -0.003134    0.000000
            21    1       2.695350      3.143770      4.365920     0.000000    0.005959    0.000000
            22    1       4.070180     -0.762380     13.097700     0.005710    0.003134    0.000000
            23    1       1.320520     -0.762380     13.097700    -0.005710    0.003134    0.000000
            24    1       2.695350     -3.143770     13.097700     0.000000   -0.005959    0.000000
 Energy
       -211.451000000000
 PlusStress:  xx          yy          zz          yz          xz          xy
         0.43616     0.43342     0.26334     0.00000     0.00000     0.00000
 Feature   PRAPs-ID	DFT_18
 Feature   elements	HfMo
 Feature   from	aflow.org/JSON/HfMo/2dad651f56dabb2c/relax-step=6
 Feature   mindist	2.640973
END_CFG

BEGIN_CFG
 Size
    24
 Supercell
         2.696280     -4.670060      0.000000
         2.696280      4.670060      0.000000
         0.000000      0.000000     17.463300
 AtomData:  id type       cartes_x      cartes_y      cartes_z           fx          fy          fz
             1    0       2.696280      4.670050      1.658940     0.000000   -0.000033    0.007779
             2    0       2.696280     -4.670050     10.390600     0.000000    0.000033    0.007779
             3    0       2.696280     -4.670050     15.804300     0.000000    0.000033   -0.007779
             4    0       2.696280      4.670050      7.072700     0.000000   -0.000033   -0.007779
             5    0       2.696280      1.556710     14.732300     0.000000   -0.000128   -0.006623
             6    0       2.696280     -1.556710      6.000620     0.000000    0.000128   -0.006623
             7    0       2.696280     -1.556710      2.731020     0.000000    0.000128    0.006623
             8    0       2.696280      1.556710     11.462700     0.000000   -0.000128    0.006623
             9    1       2.696280      1.556680      2.161230     0.000000   -0.000009   -0.000512
            10    1       2.696280     -1.556680     10.892900     0.000000    0.000009   -0.000512
            11    1       2.696280     -1.556680     15.302000     0.000000    0.000009    0.000512
            12    1       2.696280      1.556680      6.570410     0.000000   -0.000009    0.000512
            13    1       1.348140     -2.335030      0.000000     0.000000    0.000000    0.000000
            14    1       1.348140      2.335030      0.000000     0.000000    0.000000    0.000000
            15    1       2.696280      0.000000      0.000000     0.000000    0.000000    0.000000
            16    1       1.348140     -2.335030      8.731640     0.000000    0.000000    0.000000
            17    1       1.348140      2.335030      8.731640     0.000000    0.000000    0.000000
            18    1       2.696280      0.000000      8.731640     0.000000    0.000000    0.000000
            19    1       1.320980      0.762650      4.365820     0.009709    0.005537    0.000000
            20    1       4.071570      0.762650      4.365820    -0.009709    0.005537    0.000000
            21    1       2.696280      3.144730      4.365820     0.000000   -0.011143    0.000000
            22    1       4.071570     -0.762650     13.097500    -0.009709   -0.005537    0.000000
            23    1       1.320980     -0.762650     13.097500     0.009709   -0.005537    0.000000
            24    1       2.696280     -3.144730     13.097500     0.000000    0.011143    0.000000
 Energy
       -211.501000000000
 PlusStress:  xx          yy          zz          yz          xz          xy
         0.09607     0.09607     0.23606     0.00000     0.00000     0.00000
 Feature   PRAPs-ID	DFT_23
 Feature   elements	HfMo
 Feature   from	aflow.org/JSON/HfMo/2dad651f56dabb2c/relax-step=11
 Feature   mindist	2.641939
END_CFG

BEGIN_CFG
 Size
    6
 Supercell
         0.000000      3.802790      3.802790
         3.802790      0.000000      3.802790
         3.802790      3.802790      0.000000
 AtomData:  id type       cartes_x      cartes_y      cartes_z           fx          fy          fz
             1    0       0.000000      0.000000      0.000000     0.000000    0.000000    0.000000
             2    0       5.704180      5.704180      5.704180     0.000000    0.000000    0.000000
             3    1       4.753480      4.753480      2.852090     0.000000    0.000000    0.000000
             4    1       2.852090      2.852090      2.852090     0.000000    0.000000    0.000000
             5    1       4.753480      2.852090      4.753480     0.000000    0.000000    0.000000
             6    1       2.852090      4.753480      4.753480     0.000000    0.000000    0.000000
 Energy
        -52.917200000000
 PlusStress:  xx          yy          zz          yz          xz          xy
        -0.08306    -0.08306    -0.08306     0.00000     0.00000     0.00000
 Feature   PRAPs-ID	DFT_29
 Feature   elements	HfMo
 Feature   from	aflow.org/JSON/HfMo/f351bc81a67961c5/relax-step=3
 Feature   mindist	2.688972
END_CFG

BEGIN_CFG
 Size
    6
 Supercell
         0.000000      3.778500      3.778500
         3.778500      0.000000      3.778500
         3.778500      3.778500      0.000000
 AtomData:  id type       cartes_x      cartes_y      cartes_z           fx          fy          fz
             1    0       0.000000      0.000000      0.000000     0.000000    0.000000    0.000000
             2    0       5.667750      5.667750      5.667750     0.000000    0.000000    0.000000
             3    1       2.833880      4.723130      4.723130     0.000000    0.000000    0.000000
             4    1       4.723130      2.833880      4.723130     0.000000    0.000000    0.000000
             5    1       2.833880      2.833880      2.833880     0.000000    0.000000    0.000000
             6    1       4.723130      4.723130      2.833880     0.000000    0.000000    0.000000
 Energy
        -52.891700000000
 PlusStress:  xx          yy          zz          yz          xz          xy
         2.60811     2.60811     2.60811     0.00000     0.00000     0.00000
 Feature   PRAPs-ID	DFT_33
 Feature   elements	HfMo
 Feature   from	aflow.org/JSON/HfMo/79bc698532b72d01/relax-step=1
 Feature   mindist	2.671803
END_CFG

BEGIN_CFG
 Size
    6
 Supercell
         0.000000      3.801670      3.801670
         3.801670      0.000000      3.801670
         3.801670      3.801670      0.000000
 AtomData:  id type       cartes_x      cartes_y      cartes_z           fx          fy          fz
             1    0       0.000000      0.000000      0.000000     0.000000    0.000000    0.000000
             2    0       5.702500      5.702500      5.702500     0.000000    0.000000    0.000000
             3    1       2.851250      4.752080      4.752080     0.000000    0.000000    0.000000
             4    1       4.752080      2.851250      4.752080     0.000000    0.000000    0.000000
             5    1       2.851250      2.851250      2.851250     0.000000    0.000000    0.000000
             6    1       4.752080      4.752080      2.851250     0.000000    0.000000    0.000000
 Energy
        -52.926300000000
 PlusStress:  xx          yy          zz          yz          xz          xy
         0.14129     0.14129     0.14129     0.00000     0.00000     0.00000
 Feature   PRAPs-ID	DFT_38
 Feature   elements	HfMo
 Feature   from	aflow.org/JSON/HfMo/79bc698532b72d01/relax-step=6
 Feature   mindist	2.688180
END_CFG

BEGIN_CFG
 Size
    6
 Supercell
         0.000000      3.872040      3.872040
         3.872040      0.000000      3.872040
         3.872040      3.872040      0.000000
 AtomData:  id type       cartes_x      cartes_y      cartes_z           fx          fy          fz
             1    0       0.000000      0.000000      0.000000     0.000000    0.000000    0.000000
             2    0       1.936020      1.936020      1.936020     0.000000    0.000000    0.000000
             3    1       4.840060      4.840060      4.840060     0.000000    0.000000    0.000000
             4    1       2.904030      4.840060      2.904030     0.000000    0.000000    0.000000
             5    1       4.840060      2.904030      2.904030     0.000000    0.000000    0.000000
             6    1       2.904030      2.904030      4.840060     0.000000    0.000000    0.000000
 Energy
        -52.717800000000
 PlusStress:  xx          yy          zz          yz          xz          xy
        -7.02423    -7.02423    -7.02423     0.00000     0.00000     0.00000
 Feature   PRAPs-ID	DFT_52
 Feature   elements	HfMo
 Feature   from	aflow.org/JSON/HfMo/ff863ef32f591bb8/relax-step=2
 Feature   mindist	2.737932
END_CFG

BEGIN_CFG
 Size
    5
 Supercell
         1.586640      0.916049     10.508500
        -1.586640      0.916049     10.508500
         0.000000     -1.832100     10.508500
 AtomData:  id type       cartes_x      cartes_y      cartes_z           fx          fy          fz
             1    0       0.000000      0.000000     12.589300     0.000000    0.000000    0.020007
             2    0       0.000000      0.000000     18.936100     0.000000    0.000000   -0.020007
             3    1       0.000000      0.000000      0.000000     0.000000    0.000000    0.000000
             4    1       0.000000      0.000000      6.165870     0.000000    0.000000   -0.027429
             5    1       0.000000      0.000000     25.359500     0.000000    0.000000    0.027429
 Energy
        -51.017700000000
 PlusStress:  xx          yy          zz          yz          xz          xy
        -0.20648    -0.20648    -0.17903     0.00000     0.00000     0.00000
 Feature   PRAPs-ID	DFT_73
 Feature   elements	HfMo
 Feature   from	aflow.org/JSON/HfMo/642e92a3e33fb199/relax-step=17
 Feature   mindist	2.584812
END_CFG

BEGIN_CFG
 Size
    5
 Supercell
         1.572990      0.908165     10.702400
        -1.572990      0.908165     10.702400
         0.000000     -1.816330     10.702400
 AtomData:  id type       cartes_x      cartes_y      cartes_z           fx          fy          fz
             1    0       0.000000      0.000000     12.825700     0.000000    0.000000    0.115600
             2    0       0.000000      0.000000     19.281600     0.000000    0.000000   -0.115600
             3    1       0.000000      0.000000      0.000000     0.000000    0.000000    0.000000
             4    1       0.000000      0.000000      6.276510     0.000000    0.000000    0.030353
             5    1       0.000000      0.000000     25.830800     0.000000    0.000000   -0.030353
 Energy
        -51.114900000000
 PlusStress:  xx          yy          zz          yz          xz          xy
         0.11623     0.11623     0.01775     0.00000     0.00000     0.00000
 Feature   PRAPs-ID	DFT_79
 Feature   elements	HfMo
 Feature   from	aflow.org/JSON/HfMo/642e92a3e33fb199/relax-step=23
 Feature   mindist	2.592960
END_CFG

BEGIN_CFG
 Size
    6
 Supercell
         0.000000     -5.354810      0.000000
         4.637400      2.677410      0.000000
         0.000000      0.000000      5.048570
 AtomData:  id type       cartes_x      cartes_y      cartes_z           fx          fy          fz
             1    0       0.000000      0.000000      0.000000    -0.699362   -0.403777    0.000000
             2    0       1.545800     -2.677410      0.000000     0.000000    0.807554    0.000000
             3    0       3.091600      0.000000      0.000000     0.699362   -0.403777    0.000000
             4    0       1.545800      0.892470      2.524280     0.000000    0.000000    0.000000
             5    1       3.091600     -1.784940      2.524280     0.000000    0.000000    0.000000
             6    1       0.000000     -1.784940      2.524280     0.000000    0.000000    0.000000
 Energy
        -59.762700000000
 PlusStress:  xx          yy          zz          yz          xz          xy
        -4.82403    -4.82403    -5.56504     0.00000     0.00000     0.00000
 Feature   PRAPs-ID	DFT_84
 Feature   elements	HfMo
 Feature   from	aflow.org/JSON/HfMo/31e1e7b15bf93cc5/relax-step=1
 Feature   mindist	3.091596
END_CFG

BEGIN_CFG
 Size
    6
 Supercell
         0.000000     -5.341960      0.000000
         4.626270      2.670980      0.000000
         0.000000      0.000000      4.836680
 AtomData:  id type       cartes_x      cartes_y      cartes_z           fx          fy          fz
             1    0       4.526760      2.613530      0.000000    -0.020282   -0.011710    0.000000
             2    0       1.542090     -2.556080      0.000000     0.000000    0.023420    0.000000
             3    0       3.183690     -0.057450      0.000000     0.020282   -0.011710    0.000000
             4    0       1.542090      0.890330      2.418340     0.000000    0.000000    0.000000
             5    1       3.084180     -1.780650      2.418340     0.000000    0.000000    0.000000
             6    1       0.000000     -1.780650      2.418340     0.000000    0.000000    0.000000
 Energy
        -60.005200000000
 PlusStress:  xx          yy          zz          yz          xz          xy
         0.08356     0.08356     0.07759     0.00000     0.00000     0.00000
 Feature   PRAPs-ID	DFT_96
 Feature   elements	HfMo
 Feature   from	aflow.org/JSON/HfMo/31e1e7b15bf93cc5/relax-step=13
 Feature   mindist	2.971143
END_CFG

BEGIN_CFG
 Size
    6
 Supercell
         0.000000      3.307080     -3.307080
        -5.003930     -1.585720      1.721360
        -1.758530      1.688410      4.995490
 AtomData:  id type       cartes_x      cartes_y      cartes_z           fx          fy          fz
             1    0       0.138500     -0.048740     -0.048740    -0.333491   -0.109139   -0.109139
             2    0      -1.713250      1.682280      1.682280     0.000000    0.000000    0.000000
             3    0      -1.806480      1.724880     -1.582200     0.333491    0.109139    0.109139
             4    1      -3.511940      0.107950      3.415020    -0.212900    0.073037    0.073037
             5    1      -3.335950      0.045210      0.045210     0.000000    0.000000    0.000000
             6    1      -4.918500      1.670890      1.670890     0.212900   -0.073037   -0.073037
 Energy
        -62.739200000000
 PlusStress:  xx          yy          zz          yz          xz          xy
         2.25508     0.30365     0.30365     0.40372    -0.04318     0.40372
 Feature   PRAPs-ID	DFT_101
 Feature   elements	HfMo
 Feature   from	aflow.org/JSON/HfMo/17e522cf423f38bf/relax-step=5
 Feature   mindist	2.731882
END_CFG

BEGIN_CFG
 Size
    4
 Supercell
         3.229700     -2.278610      2.278610
        -3.229700     -2.278610      2.278610
         0.000000     -2.293340     -2.293340
 AtomData:  id type       cartes_x      cartes_y      cartes_z           fx          fy          fz
             1    0       0.000000      0.000000      0.000000     0.000000    0.000000    0.000000
             2    1      -1.614850     -2.285980     -0.007360     0.000000    0.000000    0.000000
             3    1       1.614850     -2.285980     -0.007360     0.000000    0.000000    0.000000
             4    1       0.000000     -2.278610      2.278610     0.000000    0.000000    0.000000
 Energy
        -42.561700000000
 PlusStress:  xx          yy          zz          yz          xz          xy
         0.28105    -0.03666    -0.03666     0.00000    -0.28020     0.00000
 Feature   PRAPs-ID	DFT_128
 Feature   elements	HfMo
 Feature   from	aflow.org/JSON/HfMo/862ff41d126add52/relax-step=16
 Feature   mindist	2.798831
END_CFG

BEGIN_CFG
 Size
    5
 Supercell
         1.638810      1.703770     -1.703770
         1.638810      7.955580      7.955580
         1.638810     -1.703770      1.703770
 AtomData:  id type       cartes_x      cartes_y      cartes_z           fx          fy          fz
             1    0       1.638810      7.951590      7.951590     0.000000   -0.056753   -0.056753
             2    0       3.277630      3.186220      3.186220     0.000000    0.056753    0.056753
             3    1       1.638810      1.591120      1.591120     0.000000    0.000000    0.000000
             4    1       1.638810      4.848950      4.848950     0.000000    0.001553    0.001553
             5    1       3.277630      6.288860      6.288860     0.000000   -0.001553   -0.001553
 Energy
        -52.112800000000
 PlusStress:  xx          yy          zz          yz          xz          xy
         0.20575     0.28006     0.28006     0.00000     0.03660     0.00000
 Feature   PRAPs-ID	DFT_145
 Feature   elements	HfMo
 Feature   from	aflow.org/JSON/HfMo/f377741e6c6b8cb4/relax-step=11
 Feature   mindist	2.613876
END_CFG

BEGIN_CFG
 Size
    6
 Supercell
        -1.470680     -2.547290      0.000000
         1.470680     -2.547290      0.000000
         0.000000      0.000000     14.130400
 AtomData:  id type       cartes_x      cartes_y      cartes_z           fx          fy          fz
             1    0       0.000000      0.000000     -0.004810     0.000000    0.000000   -0.323964
             2    0       0.000000      0.000000      4.714940     0.000000    0.000000    0.323964
             3    1       0.000000      0.000000      9.420260     0.000000    0.000000    0.000000
             4    1       0.000000     -1.698190      2.355060     0.000000    0.000000    0.000000
             5    1       0.000000     -1.698190      7.136940     0.000000    0.000000    0.693257
             6    1       0.000000     -1.698190     11.703600     0.000000    0.000000   -0.693257
 Energy
        -60.662600000000
 PlusStress:  xx          yy          zz          yz          xz          xy
         1.56015     1.56015    -0.79758     0.00000     0.00000     0.00000
 Feature   PRAPs-ID	DFT_151
 Feature   elements	HfMo
 Feature   from	aflow.org/JSON/HfMo/1d8b900f7d479b5c/relax-step=4
 Feature   mindist	2.845593
END_CFG

BEGIN_CFG
 Size
    6
 Supercell
        -1.544720     -2.675540      0.000000
         1.544720     -2.675540      0.000000
         0.000000      0.000000     13.329900
 AtomData:  id type       cartes_x      cartes_y      cartes_z           fx          fy          fz
             1    0       0.000000      0.000000     -0.085790     0.000000    0.000000   -0.240537
             2    0       0.000000      0.000000      4.529100     0.000000    0.000000    0.240537
             3    1       0.000000      0.000000      8.886620     0.000000    0.000000    0.000000
             4    1       0.000000     -1.783690      2.221650     0.000000    0.000000    0.000000
             5    1       0.000000     -1.783690      6.911080     0.000000    0.000000   -0.212836
             6    1       0.000000     -1.783690     10.862200     0.000000    0.000000    0.212836
 Energy
        -60.936000000000
 PlusStress:  xx          yy          zz          yz          xz          xy
        -1.63057    -1.63057    -1.80801     0.00000     0.00000     0.00000
 Feature   PRAPs-ID	DFT_156
 Feature   elements	HfMo
 Feature   from	aflow.org/JSON/HfMo/1d8b900f7d479b5c/relax-step=9
 Feature   mindist	2.661636
END_CFG

BEGIN_CFG
 Size
    6
 Supercell
        -1.534350     -2.657580      0.000000
         1.534350     -2.657580      0.000000
         0.000000      0.000000     13.274100
 AtomData:  id type       cartes_x      cartes_y      cartes_z           fx          fy          fz
             1    0       0.000000      0.000000     13.162000     0.000000    0.000000   -0.039734
             2    0       0.000000      0.000000      4.536840     0.000000    0.000000    0.039734
             3    1       0.000000      0.000000      8.849400     0.000000    0.000000    0.000000
             4    1       0.000000     -1.771720      2.212350     0.000000    0.000000    0.000000
             5    1       0.000000     -1.771720      6.856920     0.000000    0.000000    0.014967
             6    1       0.000000     -1.771720     10.841900     0.000000    0.000000   -0.014967
 Energy
        -60.956300000000
 PlusStress:  xx          yy          zz          yz          xz          xy
         0.10811     0.10811     0.05135     0.00000     0.00000     0.00000
 Feature   PRAPs-ID	DFT_165
 Feature   elements	HfMo
 Feature   from	aflow.org/JSON/HfMo/1d8b900f7d479b5c/relax-step=18
 Feature   mindist	2.666262
END_CFG

BEGIN_CFG
 Size
    4
 Supercell
         2.661660     -5.379790      0.000000
         2.661660      5.379790      0.000000
         0.000000      0.000000      2.673050
 AtomData:  id type       cartes_x      cartes_y      cartes_z           fx          fy          fz
             1    0       2.661660      0.000000      0.000000     0.000000    0.000000    0.000000
             2    1       0.000000      0.000000      0.000000     0.000000    0.000000    0.000000
             3    1       2.661660     -2.832020      0.000000     0.000000   -0.000173    0.000000
             4    1       2.661660      2.832020      0.000000     0.000000    0.000173    0.000000
 Energy
        -38.245300000000
 PlusStress:  xx          yy          zz          yz          xz          xy
        -0.08314    -0.06211    -0.04969     0.00000     0.00000     0.00000
 Feature   PRAPs-ID	DFT_179
 Feature   elements	HfMo
 Feature   from	aflow.org/JSON/HfMo/b6e290bcd6253ac3/relax-step=14
 Feature   mindist	2.547770
END_CFG

BEGIN_CFG
 Size
    4
 Supercell
        -1.876380      1.876380      5.408610
         1.876380     -1.876380      5.408610
         1.876380      1.876380     -5.408610
 AtomData:  id type       cartes_x      cartes_y      cartes_z           fx          fy          fz
             1    0       0.000000      0.000000      5.408610     0.000000    0.000000    0.000000
             2    1       0.000000      0.000000      0.000000     0.000000    0.000000    0.000000
             3    1       0.000000      0.000000      8.291620     0.000000    0.000000    0.072808
             4    1       0.000000      0.000000      2.525590     0.000000    0.000000   -0.072808
 Energy
        -38.482500000000
 PlusStress:  xx          yy          zz          yz          xz          xy
         0.19302     0.19302     0.22773     0.00000     0.00000     0.00000
 Feature   PRAPs-ID	DFT_198
 Feature   elements	HfMo
 Feature   from	aflow.org/JSON/HfMo/43183092518e548e/relax-step=13
 Feature   mindist	2.525590
END_CFG

BEGIN_CFG
 Size
    4
 Supercell
        -1.870340      1.870340      5.472460
         1.870340     -1.870340      5.472460
         1.870340      1.870340     -5.472460
 AtomData:  id type       cartes_x      cartes_y      cartes_z           fx          fy          fz
             1    0       0.000000      0.000000      5.472460     0.000000    0.000000    0.000000
             2    1       0.000000      0.000000      0.000000     0.000000    0.000000    0.000000
             3    1       0.000000      0.000000      8.433810     0.000000    0.000000    0.004134
             4    1       0.000000      0.000000      2.511110     0.000000    0.000000   -0.004134
 Energy
        -38.485700000000
 PlusStress:  xx          yy          zz          yz          xz          xy
        -0.03871    -0.03871    -0.01386     0.00000     0.00000     0.00000
 Feature   PRAPs-ID	DFT_217
 Feature   elements	HfMo
 Feature   from	aflow.org/JSON/HfMo/43183092518e548e/relax-step=32
 Feature   mindist	2.511110
END_CFG

BEGIN_CFG
 Size
    4
 Supercell
        -1.869950      1.869950      5.475490
         1.869950     -1.869950      5.475490
         1.869950      1.869950     -5.475490
 AtomData:  id type       cartes_x      cartes_y      cartes_z           fx          fy          fz
             1    0       0.000000      0.000000      5.475490     0.000000    0.000000    0.000000
             2    1       0.000000      0.000000      0.000000     0.000000    0.000000    0.000000
             3    1       0.000000      0.000000      8.441050     0.000000    0.000000   -0.001761
             4    1       0.000000      0.000000      2.509930     0.000000    0.000000    0.001761
 Energy
        -38.485600000000
 PlusStress:  xx          yy          zz          yz          xz          xy
        -0.04159    -0.04159     0.00860     0.00000     0.00000     0.00000
 Feature   PRAPs-ID	DFT_223
 Feature   elements	HfMo
 Feature   from	aflow.org/JSON/HfMo/43183092518e548e/relax-step=38
 Feature   mindist	2.509930
END_CFG

BEGIN_CFG
 Size
    4
 Supercell
         2.949080      0.000000      0.000000
         0.000000      2.949080      0.000000
         0.000000      0.000000      9.093000
 AtomData:  id type       cartes_x      cartes_y      cartes_z           fx          fy          fz
             1    0       0.737270      0.737270      1.182090     0.000000    0.000000    0.801934